ITEM: TIMESTEP
100000
ITEM: NUMBER OF ATOMS
400
ITEM: BOX BOUNDS pp pp pp
0.0000000000000000e+00 1.9518001458970666e+01
0.0000000000000000e+00 1.9518001458970666e+01
-4.8795003647426660e-01 4.8795003647426660e-01
ITEM: ATOMS id type xs ys zs
99 1 0.387589 0.227216 0.5
13 1 0.153012 0.00968888 0.5
29 1 0.205742 0.0133024 0.5
251 1 0.259035 0.0188818 0.5
39 1 0.314266 0.0302474 0.5
28 1 0.367495 0.0386872 0.5
186 1 0.418395 0.0372865 0.5
349 1 0.00182407 0.136319 0.5
369 1 0.0757022 0.0485605 0.5
14 1 0.122157 0.0528386 0.5
390 1 0.17788 0.0583869 0.5
242 1 0.225737 0.0672111 0.5
58 1 0.277381 0.069823 0.5
253 1 0.332016 0.0792226 0.5
222 1 0.473211 0.0477577 0.5
132 1 0.0311455 0.094316 0.5
151 1 0.0801824 0.105286 0.5
47 1 0.138048 0.107292 0.5
223 1 0.196801 0.112805 0.5
45 1 0.247179 0.117184 0.5
384 1 0.299699 0.119852 0.5
50 1 0.387669 0.0853362 0.5
89 1 0.437662 0.092042 0.5
374 1 0.491074 0.100511 0.5
87 1 0.438905 0.234372 0.5
23 1 0.0533136 0.143989 0.5
27 1 0.354384 0.124133 0.5
98 1 0.409004 0.133453 0.5
60 1 0.45922 0.136235 0.5
22 1 0.105458 0.148405 0.5
388 1 0.160552 0.151532 0.5
36 1 0.210871 0.164208 0.5
48 1 0.266106 0.162824 0.5
67 1 0.319772 0.16492 0.5
292 1 0.373628 0.171042 0.5
230 1 0.0205095 0.183547 0.5
24 1 0.0737695 0.191308 0.5
161 1 0.125848 0.197338 0.5
41 1 0.178397 0.202741 0.5
44 1 0.236149 0.211975 0.5
65 1 0.286279 0.208185 0.5
59 1 0.428232 0.186428 0.5
68 1 0.476877 0.194236 0.5
35 1 0.0383093 0.230098 0.5
54 1 0.0940228 0.237834 0.5
15 1 0.00757111 0.0451563 0.5
77 1 0.337428 0.214029 0.5
12 1 0.144611 0.249426 0.5
18 1 0.0467345 0.00445345 0.5
38 1 0.103291 0.00490634 0.5
78 1 0.49791 0.23934 0.5
2 1 0.0199128 0.280081 0.5
248 1 0.0701351 0.285994 0.5
72 1 0.118233 0.298452 0.5
137 1 0.304912 0.262163 0.5
73 1 0.163018 0.487086 0.5
52 1 0.00434904 0.461971 0.5
100 1 0.40774 0.272398 0.5
118 1 0.460155 0.281212 0.5
56 1 0.170128 0.297482 0.5
55 1 0.226326 0.303675 0.5
66 1 0.276818 0.306187 0.5
63 1 0.325413 0.311479 0.5
86 1 0.374263 0.31529 0.5
110 1 0.424307 0.317033 0.5
33 1 0.0386737 0.331342 0.5
32 1 0.0861757 0.337504 0.5
53 1 0.138256 0.344437 0.5
46 1 0.197028 0.350184 0.5
75 1 0.24491 0.350847 0.5
85 1 0.34998 0.356754 0.5
109 1 0.357292 0.267623 0.5
220 1 0.0110994 0.371478 0.5
239 1 0.0626952 0.384011 0.5
21 1 0.113017 0.389436 0.5
11 1 0.169396 0.392117 0.5
104 1 0.298731 0.35786 0.5
139 1 0.400821 0.360936 0.5
80 1 0.452376 0.365741 0.5
250 1 0.0315334 0.423858 0.5
95 1 0.218738 0.393345 0.5
105 1 0.267867 0.396501 0.5
117 1 0.321458 0.399304 0.5
159 1 0.371286 0.40762 0.5
301 1 0.422637 0.417307 0.5
302 1 0.477339 0.414798 0.5
92 1 0.0902201 0.436193 0.5
102 1 0.1403 0.435384 0.5
51 1 0.192371 0.439938 0.5
83 1 0.24252 0.448925 0.5
127 1 0.290558 0.443327 0.5
129 1 0.341805 0.450746 0.5
146 1 0.391084 0.457896 0.5
341 1 0.449053 0.463633 0.5
76 1 0.252578 0.258439 0.5
74 1 0.0558447 0.471032 0.5
84 1 0.115578 0.48081 0.5
294 1 0.486249 0.32558 0.5
107 1 0.314431 0.494664 0.5
143 1 0.262712 0.499676 0.5
96 1 0.214595 0.496903 0.5
64 1 0.195293 0.249822 0.5
260 1 0.0343189 0.519826 0.5
112 1 0.0848308 0.526862 0.5
135 1 0.13299 0.531579 0.5
140 1 0.382563 0.740145 0.5
319 1 0.36757 0.50017 0.5
128 1 0.492933 0.666005 0.5
142 1 0.27751 0.739409 0.5
106 1 0.467969 0.515813 0.5
125 1 0.0512041 0.57092 0.5
126 1 0.189674 0.541339 0.5
134 1 0.240883 0.542666 0.5
155 1 0.290182 0.544233 0.5
172 1 0.340494 0.542473 0.5
124 1 0.390172 0.553654 0.5
167 1 0.438882 0.553275 0.5
116 1 0.100882 0.573738 0.5
122 1 0.152322 0.577018 0.5
123 1 0.215488 0.591964 0.5
175 1 0.265698 0.595941 0.5
362 1 0.315681 0.589433 0.5
145 1 0.366498 0.596135 0.5
165 1 0.41818 0.601132 0.5
329 1 0.0218828 0.61653 0.5
174 1 0.0705722 0.617926 0.5
197 1 0.119976 0.621734 0.5
133 1 0.170964 0.626495 0.5
162 1 0.232113 0.635373 0.5
4 1 0.283472 0.642975 0.5
272 1 0.469806 0.612119 0.5
348 1 0.0382695 0.666803 0.5
360 1 0.334774 0.643662 0.5
108 1 0.390684 0.64194 0.5
178 1 0.434575 0.65777 0.5
144 1 0.41776 0.507022 0.5
113 1 0.0878583 0.667231 0.5
131 1 0.143089 0.670771 0.5
164 1 0.199295 0.674375 0.5
153 1 0.251747 0.688055 0.5
141 1 0.301552 0.692788 0.5
391 1 0.358115 0.693093 0.5
342 1 0.415724 0.703478 0.5
148 1 0.466064 0.709651 0.5
320 1 0.0553781 0.71845 0.5
169 1 0.112085 0.716313 0.5
179 1 0.164985 0.713325 0.5
190 1 0.221657 0.730416 0.5
37 1 0.329619 0.735497 0.5
180 1 0.491788 0.565329 0.5
114 1 0.00515695 0.714052 0.5
199 1 0.45214 0.902961 0.5
399 1 0.0820567 0.75786 0.5
188 1 0.129056 0.771143 0.5
352 1 0.187367 0.771105 0.5
156 1 0.241941 0.778961 0.5
26 1 0.293058 0.788614 0.5
7 1 0.353151 0.783331 0.5
8 1 0.405756 0.791189 0.5
3 1 0.0543076 0.800141 0.5
185 1 0.105692 0.81709 0.5
331 1 0.455241 0.813366 0.5
387 1 0.0308448 0.867644 0.5
194 1 0.0840945 0.868073 0.5
9 1 0.156703 0.814952 0.5
193 1 0.205175 0.824253 0.5
138 1 0.271419 0.834761 0.5
10 1 0.32193 0.828819 0.5
168 1 0.380009 0.834563 0.5
215 1 0.429212 0.854443 0.5
335 1 0.452024 0.995639 0.5
152 1 0.0566465 0.915016 0.5
389 1 0.136466 0.87176 0.5
182 1 0.188625 0.87772 0.5
184 1 0.24952 0.879157 0.5
17 1 0.29825 0.883102 0.5
30 1 0.35416 0.876795 0.5
231 1 0.401712 0.898079 0.5
380 1 0.110281 0.912229 0.5
192 1 0.160651 0.920364 0.5
170 1 0.216529 0.923356 0.5
232 1 0.275313 0.934239 0.5
393 1 0.324332 0.928605 0.5
201 1 0.372254 0.937709 0.5
350 1 0.0245584 0.757358 0.5
309 1 2.39388e-05 0.802633 0.5
198 1 0.0259864 0.959417 0.5
5 1 0.0789527 0.960473 0.5
6 1 0.134369 0.962241 0.5
196 1 0.190094 0.965152 0.5
195 1 0.241789 0.972767 0.5
382 1 0.42274 0.948132 0.5
394 1 0.478584 0.758629 0.5
396 1 0.395454 0.989623 0.5
16 1 0.296498 0.978695 0.5
40 1 0.344113 0.980098 0.5
212 1 0.48085 0.861572 0.5
227 1 0.473981 0.947709 0.5
154 1 0.430796 0.750214 0.5
258 1 0.788249 0.211424 0.5
234 1 0.839839 0.22947 0.5
363 1 0.703941 0.0203043 0.5
216 1 0.585846 0.0145925 0.5
365 1 0.806011 0.0174143 0.5
264 1 0.942004 0.231 0.5
228 1 0.520673 0.0583184 0.5
252 1 0.57067 0.0615036 0.5
397 1 0.621848 0.0564814 0.5
378 1 0.677279 0.0649377 0.5
262 1 0.727723 0.0667166 0.5
163 1 0.85186 0.0444482 0.5
219 1 0.907651 0.0432798 0.5
49 1 0.957896 0.0441228 0.5
324 1 0.541909 0.10706 0.5
202 1 0.593285 0.10823 0.5
225 1 0.642813 0.101861 0.5
377 1 0.755984 0.0197129 0.5
191 1 0.808851 0.0715806 0.5
346 1 0.876183 0.0869817 0.5
218 1 0.926069 0.0883342 0.5
210 1 0.978288 0.0915697 0.5
229 1 0.989901 0.233142 0.5
90 1 0.562495 0.154284 0.5
70 1 0.699219 0.110653 0.5
243 1 0.75145 0.112762 0.5
237 1 0.799273 0.12168 0.5
217 1 0.84935 0.131735 0.5
82 1 0.900641 0.133912 0.5
209 1 0.949836 0.139192 0.5
244 1 0.611561 0.15651 0.5
88 1 0.662845 0.161201 0.5
235 1 0.724832 0.159992 0.5
20 1 0.775585 0.164342 0.5
241 1 0.531148 0.198186 0.5
79 1 0.57914 0.204636 0.5
226 1 0.631891 0.202777 0.5
273 1 0.68213 0.207727 0.5
261 1 0.731881 0.211941 0.5
255 1 0.824771 0.177617 0.5
61 1 0.874542 0.176732 0.5
1 1 0.922324 0.185228 0.5
267 1 0.972563 0.18534 0.5
181 1 0.891904 0.226213 0.5
375 1 0.500607 0.00476939 0.5
287 1 0.553035 0.245746 0.5
385 1 0.651711 0.0158331 0.5
271 1 0.604728 0.246171 0.5
19 1 0.50973 0.146629 0.5
311 1 0.520163 0.286921 0.5
284 1 0.573101 0.29527 0.5
268 1 0.801487 0.26399 0.5
295 1 0.703287 0.491619 0.5
327 1 0.507319 0.375553 0.5
245 1 0.864184 0.272341 0.5
269 1 0.913858 0.271677 0.5
25 1 0.96439 0.276496 0.5
69 1 0.62269 0.293561 0.5
293 1 0.674961 0.310228 0.5
313 1 0.72321 0.300784 0.5
257 1 0.774423 0.305906 0.5
265 1 0.828944 0.309746 0.5
247 1 0.880621 0.316796 0.5
205 1 0.536242 0.331058 0.5
263 1 0.591952 0.342248 0.5
291 1 0.643286 0.345966 0.5
280 1 0.697122 0.352877 0.5
277 1 0.936916 0.323076 0.5
289 1 0.756429 0.486777 0.5
249 1 0.991391 0.323603 0.5
303 1 0.564057 0.385806 0.5
266 1 0.615605 0.386952 0.5
339 1 0.743902 0.347088 0.5
276 1 0.805851 0.355302 0.5
300 1 0.856672 0.363474 0.5
42 1 0.907562 0.362803 0.5
279 1 0.958362 0.368656 0.5
189 1 0.53035 0.433035 0.5
285 1 0.663471 0.400606 0.5
354 1 0.71915 0.395181 0.5
325 1 0.774625 0.395125 0.5
274 1 0.820732 0.401927 0.5
256 1 0.871932 0.411995 0.5
259 1 0.923972 0.408743 0.5
34 1 0.981059 0.412291 0.5
246 1 0.58491 0.429941 0.5
254 1 0.633417 0.440219 0.5
323 1 0.683318 0.447173 0.5
306 1 0.737172 0.441489 0.5
296 1 0.78777 0.442706 0.5
71 1 0.843345 0.452503 0.5
240 1 0.900009 0.454592 0.5
238 1 0.953011 0.46094 0.5
283 1 0.54966 0.48158 0.5
130 1 0.600237 0.476424 0.5
351 1 0.652837 0.485912 0.5
203 1 0.751868 0.257011 0.5
206 1 0.703536 0.255479 0.5
312 1 0.500931 0.474867 0.5
224 1 0.652796 0.254819 0.5
361 1 0.530508 0.525028 0.5
282 1 0.580132 0.537738 0.5
149 1 0.629765 0.532228 0.5
299 1 0.764619 0.734974 0.5
347 1 0.717539 0.724259 0.5
176 1 0.985504 0.6619 0.5
62 1 0.994919 0.570215 0.5
43 1 0.981139 0.511586 0.5
366 1 0.667859 0.72491 0.5
97 1 0.548687 0.578413 0.5
316 1 0.686951 0.543154 0.5
328 1 0.739274 0.535919 0.5
318 1 0.792475 0.545268 0.5
101 1 0.843173 0.545983 0.5
93 1 0.943994 0.545685 0.5
304 1 0.818902 0.73563 0.5
158 1 0.604042 0.582456 0.5
315 1 0.654342 0.585599 0.5
281 1 0.707284 0.590528 0.5
345 1 0.756098 0.58296 0.5
297 1 0.804655 0.595406 0.5
94 1 0.892835 0.552899 0.5
150 1 0.520144 0.623281 0.5
120 1 0.577548 0.62523 0.5
160 1 0.62613 0.635185 0.5
383 1 0.677137 0.629684 0.5
343 1 0.726114 0.636946 0.5
288 1 0.857279 0.593527 0.5
115 1 0.906809 0.597676 0.5
340 1 0.965471 0.613656 0.5
187 1 0.545719 0.668766 0.5
353 1 0.594944 0.678359 0.5
221 1 0.642527 0.683424 0.5
308 1 0.775699 0.635547 0.5
278 1 0.826693 0.646467 0.5
307 1 0.876696 0.646373 0.5
103 1 0.933798 0.65172 0.5
373 1 0.563302 0.723186 0.5
395 1 0.516183 0.709841 0.5
119 1 0.613345 0.725646 0.5
333 1 0.690954 0.678559 0.5
322 1 0.745596 0.685153 0.5
91 1 0.793842 0.68544 0.5
334 1 0.849167 0.693645 0.5
275 1 0.901147 0.69775 0.5
286 1 0.957394 0.698974 0.5
317 1 0.868143 0.740794 0.5
270 1 0.919739 0.501487 0.5
290 1 0.824467 0.501479 0.5
310 1 0.870195 0.506409 0.5
213 1 0.507441 0.905622 0.5
371 1 0.578104 0.77167 0.5
355 1 0.635105 0.770524 0.5
381 1 0.684331 0.772014 0.5
136 1 0.527709 0.758704 0.5
358 1 0.879779 0.99589 0.5
357 1 0.777642 0.97331 0.5
379 1 0.829812 0.971057 0.5
332 1 0.550542 0.810797 0.5
359 1 0.741265 0.784481 0.5
330 1 0.792631 0.784152 0.5
370 1 0.847398 0.786721 0.5
121 1 0.899717 0.800107 0.5
81 1 0.949451 0.802436 0.5
57 1 0.927612 0.993168 0.5
233 1 0.606744 0.812574 0.5
364 1 0.653805 0.823952 0.5
314 1 0.702646 0.822378 0.5
321 1 0.764357 0.828379 0.5
372 1 0.821946 0.839691 0.5
31 1 0.874189 0.8455 0.5
166 1 0.929657 0.848134 0.5
204 1 0.578892 0.85552 0.5
344 1 0.681676 0.868193 0.5
336 1 0.731653 0.86603 0.5
386 1 0.786986 0.880248 0.5
298 1 0.984552 0.851759 0.5
326 1 0.605086 0.918269 0.5
214 1 0.626594 0.868032 0.5
367 1 0.655444 0.91624 0.5
368 1 0.703895 0.914658 0.5
400 1 0.755959 0.93071 0.5
376 1 0.845263 0.887723 0.5
173 1 0.898162 0.889667 0.5
183 1 0.945009 0.905155 0.5
338 1 0.673123 0.962975 0.5
147 1 0.559716 0.905598 0.5
236 1 0.525433 0.962393 0.5
171 1 0.811974 0.923872 0.5
177 1 0.863935 0.937448 0.5
207 1 0.914086 0.943541 0.5
337 1 0.965881 0.952732 0.5
392 1 0.529473 0.858146 0.5
211 1 0.571604 0.955874 0.5
200 1 0.625189 0.973103 0.5
398 1 0.973472 0.759021 0.5
208 1 0.72415 0.971331 0.5
111 1 0.918435 0.750912 0.5
305 1 0.502339 0.805414 0.5
157 1 0.99892 0.913552 0.5
356 1 0.987413 0.996951 0.5
