LAMMPS (15 Sep 2022)
OMP_NUM_THREADS environment is not set. Defaulting to 1 thread. (src/comm.cpp:98)
  using 1 OpenMP thread(s) per MPI task
# 3d WCA system, random initial configuration

#variable density equal 0.5
variable initial_temperature equal 3.0
variable final_temperature equal 0.1
variable dt equal 0.01
variable tau equal 100*${dt}
variable tau equal 100*0.01
variable thermo_time equal 50000*${dt}
variable thermo_time equal 50000*0.01
variable equil_steps equal 50000
variable run_steps equal 100000

units           lj
atom_style      atomic
dimension       3

lattice         fcc ${density}
lattice         fcc 1.4
Lattice spacing in x,y,z = 1.4189834 1.4189834 1.4189834
region          box prism 0 8 0 8 0 8 0 -0.5 0.5
# number of atom types
create_box      1 box
Created triclinic box = (0 0 0) to (11.351867 11.351867 11.351867) with tilt (0 -0.70949171 0.70949171)
  2 by 2 by 2 MPI processor grid
create_atoms    1 box
Created 2048 atoms
  using lattice units in triclinic box = (0 0 0) to (11.351867 11.351867 11.351867) with tilt (0 -0.70949171 0.70949171)
  create_atoms CPU = 0.000 seconds
mass 1 1.0

velocity all create ${initial_temperature} 12345
velocity all create 3 12345

pair_style      lj/cut 1.0
#type_1 type_2 epsilon sigma cutoff
pair_coeff      1 1 10.0 0.89089871814 1.0
pair_modify shift yes

timestep ${dt}
timestep 0.01
thermo ${thermo_time}
thermo 500

fix 1 all nvt temp ${initial_temperature} ${initial_temperature} ${tau}
fix 1 all nvt temp 3 ${initial_temperature} ${tau}
fix 1 all nvt temp 3 3 ${tau}
fix 1 all nvt temp 3 3 1
run ${equil_steps}
run 50000
Generated 0 of 0 mixed pair_coeff terms from geometric mixing rule
Neighbor list info ...
  update: every = 1 steps, delay = 0 steps, check = yes
  max neighbors/atom: 2000, page size: 100000
  master list distance cutoff = 1.3
  ghost atom cutoff = 1.3
  binsize = 0.65, bins = 19 19 18
  1 neighbor lists, perpetual/occasional/extra = 1 0 0
  (1) pair lj/cut, perpetual
      attributes: half, newton on
      pair build: half/bin/newton/tri
      stencil: half/bin/3d/tri
      bin: standard
Per MPI rank memory allocation (min/avg/max) = 3.077 | 3.078 | 3.078 Mbytes
   Step          Temp          E_pair         E_mol          TotEng         Press     
         0   3              0              0              4.4978027      4.1979492    
       500   2.8590314      3.7678565      0              8.0543096      71.715892    
      1000   2.9623624      3.6849465      0              8.1263204      71.022367    
      1500   2.9956586      3.7994703      0              8.2907641      72.619064    
      2000   3.0274732      3.9898815      0              8.5288739      74.614279    
      2500   3.0488446      3.999125       0              8.5701589      74.572662    
      3000   3.0389987      3.8573357      0              8.4136079      72.944044    
      3500   2.97837        3.8771277      0              8.3425012      73.465312    
      4000   3.0191543      3.9050445      0              8.4315647      73.682407    
      4500   3.0606698      3.8421578      0              8.4309207      72.731995    
      5000   3.0129916      3.9879986      0              8.5052793      74.508028    
      5500   3.0547978      3.9812017      0              8.561161       74.582876    
      6000   2.9754675      3.9927999      0              8.4538219      74.588144    
      6500   3.1059161      3.8903638      0              8.5469632      73.680373    
      7000   3.0622794      3.8826058      0              8.473782       73.505012    
      7500   3.0323644      3.9470489      0              8.4933746      73.942612    
      8000   2.9292479      4.0864547      0              8.4781811      75.350862    
      8500   3.0896746      3.8710274      0              8.5032763      73.177836    
      9000   2.9848567      4.0220426      0              8.4971415      75.035809    
      9500   3.1336513      3.8034541      0              8.5016359      72.242094    
     10000   3.0596219      3.8743037      0              8.4614955      73.213991    
     10500   3.0119767      3.9956403      0              8.5113993      74.309277    
     11000   3.0395453      3.9628883      0              8.51998        74.176015    
     11500   2.9999014      3.9282133      0              8.4258682      73.92842     
     12000   3.0159665      4.013878       0              8.5356188      74.908845    
     12500   3.0743133      3.8599867      0              8.469205       72.965535    
     13000   3.0303452      3.9342141      0              8.4775124      73.949495    
     13500   3.0161707      3.9256631      0              8.4477101      73.761401    
     14000   3.0707505      3.8720877      0              8.4759643      73.163647    
     14500   3.0701491      3.8701208      0              8.4730958      73.369702    
     15000   3.0552448      3.9723077      0              8.5529372      74.24048     
     15500   2.9691723      4.0128636      0              8.4644474      74.562462    
     16000   3.1415008      3.7602588      0              8.4702091      72.024624    
     16500   3.0397745      3.9751825      0              8.5326178      74.357284    
     17000   2.9873971      3.9822217      0              8.4611293      74.602916    
     17500   3.0211445      4.0324584      0              8.5619624      74.905304    
     18000   3.0230945      3.9177745      0              8.4502021      73.991283    
     18500   3.0254259      3.9708991      0              8.506822       74.094062    
     19000   3.0161681      3.9286858      0              8.4507288      74.114987    
     19500   3.0263536      3.9351974      0              8.4725112      74.344512    
     20000   3.0308931      3.9338091      0              8.4779288      74.057935    
     20500   3.0609774      3.907498       0              8.4967222      73.581598    
     21000   3.1379415      3.7732256      0              8.4778395      72.38706     
     21500   3.1171517      3.8493286      0              8.5227731      73.055941    
     22000   3.0441593      3.9392381      0              8.5032474      73.834369    
     22500   3.0790154      3.9007855      0              8.5170535      73.211736    
     23000   3.0650606      3.9273344      0              8.5226804      73.737252    
     23500   2.9927271      3.9802386      0              8.4671373      74.637758    
     24000   3.0575749      3.9590241      0              8.5431469      74.048194    
     24500   3.0293975      3.9232813      0              8.4651586      73.81399     
     25000   3.0671785      3.8967475      0              8.4952688      73.826868    
     25500   3.083781       3.8287315      0              8.4521443      72.822392    
     26000   3.0427117      3.9346407      0              8.4964797      73.706681    
     26500   3.0858472      3.8615571      0              8.4880677      72.836438    
     27000   2.9991994      3.9791904      0              8.4757928      74.872233    
     27500   3.1003431      3.8775825      0              8.5258263      73.158571    
     28000   3.0242661      3.8892586      0              8.4234427      73.234558    
     28500   3.0573584      3.9253585      0              8.5091568      74.039013    
     29000   3.1040606      3.7793896      0              8.433207       72.226374    
     29500   2.96863        4.0703879      0              8.5211586      75.100953    
     30000   3.0325384      3.8934808      0              8.4400672      73.506365    
     30500   2.9973493      3.9972548      0              8.4910834      74.138938    
     31000   2.9654361      4.0196389      0              8.4656211      74.569792    
     31500   3.061051       3.9688526      0              8.5581871      74.276608    
     32000   2.9924126      3.965382       0              8.4518091      74.563683    
     32500   3.0825701      3.8846367      0              8.5062342      73.15995     
     33000   2.9896738      3.9490062      0              8.4313272      73.997689    
     33500   3.0462505      3.9473391      0              8.5144837      74.105411    
     34000   3.0380867      3.8900852      0              8.44499        73.24558     
     34500   3.043909       4.0168241      0              8.5804582      74.703046    
     35000   3.0009886      3.9173135      0              8.4165984      73.81276     
     35500   3.032206       4.0104877      0              8.556576       74.717808    
     36000   3.0242953      3.9335716      0              8.4677996      73.862633    
     36500   3.0630449      3.8730197      0              8.4653436      73.125765    
     37000   3.0661095      3.9037442      0              8.5006628      73.36136     
     37500   3.0534842      3.9374994      0              8.5154892      73.977408    
     38000   2.9925402      3.9652779      0              8.4518964      73.887794    
     38500   3.038196       3.9209202      0              8.4759889      73.872724    
     39000   3.0244101      3.9805285      0              8.5149285      74.461078    
     39500   2.9976432      4.0045949      0              8.4988642      74.350494    
     40000   2.9956484      4.0393709      0              8.5306495      74.997566    
     40500   3.0921642      3.8305843      0              8.4665659      72.619291    
     41000   3.0238046      4.0184553      0              8.5519476      74.752557    
     41500   3.0612071      3.9174247      0              8.5069932      73.626605    
     42000   3.0267957      3.9779994      0              8.5159761      74.152555    
     42500   3.0634495      3.8667998      0              8.4597303      72.904522    
     43000   3.0352054      3.9394376      0              8.4900227      73.910244    
     43500   3.1448312      3.8166216      0              8.5315651      72.803721    
     44000   2.9554523      4.0276688      0              8.4586826      75.01773     
     44500   2.9998262      3.9832383      0              8.4807805      74.128935    
     45000   3.0306188      3.9153651      0              8.4590736      73.445071    
     45500   3.0486983      3.9139211      0              8.4847356      73.781799    
     46000   3.1165323      3.9221141      0              8.5946299      73.980104    
     46500   2.9943772      3.9703838      0              8.4597565      74.175419    
     47000   3.1147603      3.8512838      0              8.5211429      73.130914    
     47500   2.9765601      4.0649061      0              8.5275661      74.989093    
     48000   3.0327702      3.9687292      0              8.5156632      74.230361    
     48500   2.9849493      4.0353176      0              8.5105553      74.763193    
     49000   3.0692011      3.8760317      0              8.4775854      73.37881     
     49500   3.0058306      4.0082491      0              8.5147935      74.45096     
     50000   3.0766271      3.9025598      0              8.515247       73.754049    
Loop time of 6.10868 on 8 procs for 50000 steps with 2048 atoms

Performance: 7071905.686 tau/day, 8185.076 timesteps/s, 16.763 Matom-step/s
99.6% CPU use with 8 MPI tasks x 1 OpenMP threads

MPI task timing breakdown:
Section |  min time  |  avg time  |  max time  |%varavg| %total
---------------------------------------------------------------
Pair    | 1.0289     | 1.066      | 1.114      |   3.2 | 17.45
Neigh   | 2.6325     | 2.8356     | 3.1185     |   9.5 | 46.42
Comm    | 1.4104     | 1.7225     | 1.9529     |  12.5 | 28.20
Output  | 0.0015464  | 0.0020253  | 0.0053026  |   2.8 |  0.03
Modify  | 0.27492    | 0.28683    | 0.30021    |   1.3 |  4.70
Other   |            | 0.1957     |            |       |  3.20

Nlocal:            256 ave         262 max         252 min
Histogram: 1 1 2 0 1 1 0 0 1 1
Nghost:         490.25 ave         496 max         478 min
Histogram: 1 0 0 0 0 0 2 3 1 1
Neighs:        1566.75 ave        1611 max        1532 min
Histogram: 1 0 3 1 0 0 1 0 1 1

Total # of neighbors = 12534
Ave neighs/atom = 6.1201172
Neighbor list builds = 20291
Dangerous builds = 0

unfix 1
dump           1 all atom ${run_steps} 3dWCA_T${final_temperature}_d${density}_N${run_steps}.lammpstrj
dump           1 all atom 100000 3dWCA_T${final_temperature}_d${density}_N${run_steps}.lammpstrj
dump           1 all atom 100000 3dWCA_T0.1_d${density}_N${run_steps}.lammpstrj
dump           1 all atom 100000 3dWCA_T0.1_d1.4_N${run_steps}.lammpstrj
dump           1 all atom 100000 3dWCA_T0.1_d1.4_N100000.lammpstrj
dump           2 all dcd ${thermo_time} 3dWCA_T${final_temperature}_d${density}_N${run_steps}.dcd
dump           2 all dcd 500 3dWCA_T${final_temperature}_d${density}_N${run_steps}.dcd
dump           2 all dcd 500 3dWCA_T0.1_d${density}_N${run_steps}.dcd
dump           2 all dcd 500 3dWCA_T0.1_d1.4_N${run_steps}.dcd
dump           2 all dcd 500 3dWCA_T0.1_d1.4_N100000.dcd
fix 1 all nvt temp ${initial_temperature} ${final_temperature} ${tau}
fix 1 all nvt temp 3 ${final_temperature} ${tau}
fix 1 all nvt temp 3 0.1 ${tau}
fix 1 all nvt temp 3 0.1 1

run ${run_steps}
run 100000
Generated 0 of 0 mixed pair_coeff terms from geometric mixing rule
Per MPI rank memory allocation (min/avg/max) = 3.132 | 3.133 | 3.134 Mbytes
   Step          Temp          E_pair         E_mol          TotEng         Press     
     50000   3.0766271      3.9025598      0              8.515247       73.754049    
     50500   3.0441309      3.8754411      0              8.4394078      73.426789    
     51000   2.9823076      3.9275985      0              8.3988756      73.550852    
     51500   3.0411691      3.8191068      0              8.3786329      72.512129    
     52000   3.0032796      3.7996689      0              8.3023886      72.765983    
     52500   2.9848225      3.820973       0              8.2960206      72.735141    
     53000   2.9677703      3.7700231      0              8.2195048      71.689236    
     53500   2.8892453      3.8967026      0              8.2284544      73.21474     
     54000   2.9061271      3.7988666      0              8.1559287      71.685406    
     54500   2.903632       3.7592333      0              8.1125546      71.731906    
     55000   2.9292199      3.6673141      0              8.0589984      70.545457    
     55500   2.9066267      3.6929852      0              8.0507963      70.798763    
     56000   2.7909378      3.7996843      0              7.9840469      71.943827    
     56500   2.7871822      3.7741326      0              7.9528644      71.675157    
     57000   2.8268156      3.659388       0              7.897541       70.462888    
     57500   2.7984598      3.6753267      0              7.8709667      71.169893    
     58000   2.8041236      3.6329967      0              7.8371284      69.799181    
     58500   2.7361559      3.6938926      0              7.7961224      70.779102    
     59000   2.8455176      3.455327       0              7.7215192      68.325029    
     59500   2.7606428      3.5807628      0              7.7197051      69.174962    
     60000   2.7086295      3.5962682      0              7.6572286      69.834952    
     60500   2.6878109      3.5574965      0              7.5872441      69.214282    
     61000   2.6942709      3.500736       0              7.5401689      68.67141     
     61500   2.7158788      3.4460598      0              7.5178889      68.002047    
     62000   2.636426       3.5429934      0              7.4957014      68.788996    
     62500   2.6717034      3.4134835      0              7.4190817      67.436288    
     63000   2.6999467      3.3157331      0              7.3636756      66.441321    
     63500   2.6990252      3.3093976      0              7.3559585      66.128026    
     64000   2.5643554      3.4551267      0              7.2997816      67.609837    
     64500   2.5296523      3.4212657      0              7.2138913      66.998571    
     65000   2.5942473      3.3857656      0              7.2752364      66.590962    
     65500   2.6240839      3.2189235      0              7.1531274      64.924152    
     66000   2.4804171      3.348797       0              7.0676059      66.25927     
     66500   2.5491896      3.2852633      0              7.1071805      65.549545    
     67000   2.4910477      3.3135489      0              7.048296       65.982019    
     67500   2.5378637      3.2180904      0              7.0230271      64.811313    
     68000   2.4724523      3.2524523      0              6.9593199      65.240072    
     68500   2.5007513      3.2000508      0              6.9493461      64.367318    
     69000   2.4586865      3.2431808      0              6.9294097      64.834205    
     69500   2.4698051      3.1141735      0              6.8170721      63.427536    
     70000   2.4051177      3.1546066      0              6.7605216      63.727129    
     70500   2.4156659      3.1303529      0              6.7520824      63.452362    
     71000   2.3748948      3.0766593      0              6.637262       62.261027    
     71500   2.3991814      2.9854062      0              6.582421       61.690361    
     72000   2.3422485      3.0153333      0              6.5269906      61.71057     
     72500   2.3486848      2.9868203      0              6.5081272      61.418701    
     73000   2.3051718      3.0368372      0              6.4929066      61.866104    
     73500   2.3030869      3.0109162      0              6.4638597      61.78726     
     74000   2.2944958      3.0452594      0              6.4853226      62.332534    
     74500   2.2833488      3.1135649      0              6.5369156      63.163553    
     75000   2.2717946      2.8593329      0              6.2653609      60.105957    
     75500   2.3409036      2.9678594      0              6.4775003      61.350535    
     76000   2.1984625      2.9527108      0              6.2487943      60.864357    
     76500   2.2121643      2.8825156      0              6.1991418      60.100764    
     77000   2.2372554      2.9868518      0              6.3410963      61.419628    
     77500   2.1626399      2.7941105      0              6.0364864      58.96839     
     78000   2.1910048      2.8629258      0              6.1478282      59.717352    
     78500   2.1496808      2.6957976      0              5.9187443      57.573053    
     79000   2.1318183      2.8285495      0              6.0247155      59.326752    
     79500   2.133866       2.7826463      0              5.9818824      58.677052    
     80000   2.1068176      2.7673067      0              5.9259901      58.262106    
     80500   2.1214487      2.8058328      0              5.9864521      59.041028    
     81000   2.0566881      2.6620318      0              5.7455576      57.181946    
     81500   2.0908845      2.7151242      0              5.8499195      57.824487    
     82000   2.081547       2.5648672      0              5.6856631      55.859024    
     82500   2.0269104      2.7087989      0              5.74768        57.630495    
     83000   2.0117593      2.6098132      0              5.6259787      56.332505    
     83500   2.0543481      2.6139643      0              5.6939819      56.105585    
     84000   2.013884       2.6659206      0              5.6852716      56.588632    
     84500   2.0317497      2.7334145      0              5.779551       58.134671    
     85000   1.9924304      2.5366032      0              5.5237896      55.303986    
     85500   2.0333032      2.5948132      0              5.6432787      56.102806    
     86000   1.9393639      2.5485598      0              5.4561852      55.301938    
     86500   1.9673262      2.5700241      0              5.5195724      55.644423    
     87000   1.9146522      2.5093185      0              5.3798944      54.626482    
     87500   1.9655461      2.4568566      0              5.4037362      54.128607    
     88000   1.9183634      2.4976152      0              5.3737552      54.672493    
     88500   1.9372453      2.5013607      0              5.4058097      54.67375     
     89000   1.8621808      2.4879859      0              5.2798932      54.587258    
     89500   1.8403287      2.4114944      0              5.1706397      53.801487    
     90000   1.8662984      2.4478459      0              5.2459266      53.872203    
     90500   1.829112       2.334995       0              5.0773234      52.4191      
     91000   1.8284416      2.4336675      0              5.1749907      53.88739     
     91500   1.7994813      2.3067225      0              5.0046265      52.188325    
     92000   1.7977518      2.3849248      0              5.0802359      52.911772    
     92500   1.7272673      2.3637026      0              4.9533385      52.585901    
     93000   1.8078253      2.456807       0              5.1672208      54.15636     
     93500   1.730317       2.2356636      0              4.8298717      51.03491     
     94000   1.7157695      2.2279906      0              4.8003881      50.765958    
     94500   1.6751735      2.2213765      0              4.7329098      50.45608     
     95000   1.7207099      2.2100962      0              4.7899008      50.697109    
     95500   1.6951247      2.1698818      0              4.7113272      49.844548    
     96000   1.6551159      2.2223171      0              4.7037787      50.844375    
     96500   1.6491934      2.1276957      0              4.600278       49.213173    
     97000   1.6725053      2.1358216      0              4.6433545      49.614629    
     97500   1.61925        2.1260499      0              4.5537389      49.08059     
     98000   1.6256311      2.1087883      0              4.5460442      49.106521    
     98500   1.6315618      2.0455408      0              4.4916885      48.559284    
     99000   1.6088399      2.1302677      0              4.5423492      49.298012    
     99500   1.5455798      2.0303651      0              4.3476029      48.042186    
    100000   1.5434405      2.0357067      0              4.3497369      47.981921    
    100500   1.510878       1.9548163      0              4.2200267      46.78963     
    101000   1.574823       1.9273035      0              4.2883847      46.349611    
    101500   1.444392       1.9640772      0              4.1296074      46.538003    
    102000   1.483808       1.9794787      0              4.2041039      46.865528    
    102500   1.4663057      1.8380358      0              4.0364205      45.127759    
    103000   1.4616894      1.8931242      0              4.0845877      45.641294    
    103500   1.4313872      1.8161065      0              3.962139       44.780066    
    104000   1.4254042      1.821504       0              3.9585664      44.530121    
    104500   1.4094076      1.8232089      0              3.9362881      44.90707     
    105000   1.4339775      1.8087256      0              3.9586416      44.756591    
    105500   1.3770684      1.7769095      0              3.8415036      43.98318     
    106000   1.3917009      1.7988146      0              3.8853466      44.299859    
    106500   1.3248176      1.7692873      0              3.7555435      43.92433     
    107000   1.3630643      1.7619833      0              3.8055813      44.053885    
    107500   1.2943344      1.6979241      0              3.6384777      42.784982    
    108000   1.2943814      1.6987267      0              3.6393507      42.699674    
    108500   1.2939022      1.6921768      0              3.6320824      42.760168    
    109000   1.2716113      1.6697533      0              3.5762389      42.181395    
    109500   1.2720565      1.6635502      0              3.5707033      42.11313     
    110000   1.2669156      1.6564788      0              3.5559244      42.265897    
    110500   1.3174445      1.6377087      0              3.6129105      41.915286    
    111000   1.2277872      1.5867284      0              3.4275099      41.161483    
    111500   1.2407968      1.6033155      0              3.4636019      41.170826    
    112000   1.2102212      1.5314081      0              3.3458536      40.105637    
    112500   1.1979888      1.6133364      0              3.4094422      41.292609    
    113000   1.1534849      1.532312       0              3.2616945      40.164631    
    113500   1.162715       1.5757463      0              3.3189672      40.457643    
    114000   1.1300697      1.4802159      0              3.1744927      39.263888    
    114500   1.1555464      1.4792351      0              3.2117084      39.067374    
    115000   1.11048        1.477921       0              3.1428277      39.16248     
    115500   1.0933546      1.4198105      0              3.0590416      38.227178    
    116000   1.0759205      1.4854819      0              3.0985746      39.009941    
    116500   1.0436124      1.4369351      0              3.0015893      38.400343    
    117000   1.0803144      1.4253078      0              3.0449882      38.288974    
    117500   1.0416071      1.3407585      0              2.9024063      36.983188    
    118000   1.0776287      1.3267234      0              2.9423771      36.869555    
    118500   1.0053774      1.3237048      0              2.8310345      36.468445    
    119000   1.0188744      1.3167765      0              2.8443418      36.415241    
    119500   0.96637156     1.2973497      0              2.7461993      35.930567    
    120000   0.97113062     1.3055981      0              2.7615828      36.384392    
    120500   0.98225595     1.2148785      0              2.687543       35.093593    
    121000   0.96626753     1.3070869      0              2.7557805      36.280081    
    121500   0.91211584     1.2116849      0              2.5791906      34.776275    
    122000   0.90458982     1.1944968      0              2.550719       34.33447     
    122500   0.91507857     1.1554099      0              2.5273576      33.619301    
    123000   0.8643932      1.1797141      0              2.4756708      34.059555    
    123500   0.88391023     1.0953111      0              2.420529       32.58812     
    124000   0.84673303     1.1231837      0              2.3926631      33.102971    
    124500   0.83270674     1.1228195      0              2.3712697      32.88806     
    125000   0.81846635     1.0247207      0              2.2518208      31.197693    
    125500   0.81888893     1.0560939      0              2.2838275      31.933404    
    126000   0.79332385     1.0188108      0              2.2082155      31.057593    
    126500   0.78850289     1.0230471      0              2.2052239      30.930506    
    127000   0.77258032     0.95639963     0              2.1147043      29.838678    
    127500   0.76013397     0.9934925      0              2.1331367      30.615728    
    128000   0.73523114     0.93419713     0              2.0365053      29.561947    
    128500   0.72196314     0.94834227     0              2.0307582      29.892003    
    129000   0.69680303     0.91477302     0              1.9594672      29.000326    
    129500   0.69440572     0.89881641     0              1.9399164      28.828276    
    130000   0.66481079     0.88649634     0              1.8832256      28.491316    
    130500   0.67484516     0.84911644     0              1.8608899      27.870023    
    131000   0.65475105     0.82491408     0              1.8065611      27.379062    
    131500   0.62679277     0.85090038     0              1.7906305      27.703918    
    132000   0.63052043     0.79788472     0              1.7432036      26.915044    
    132500   0.61316665     0.78657988     0              1.7058808      26.668881    
    133000   0.58801914     0.77525444     0              1.6568525      26.344706    
    133500   0.57917977     0.75858191     0              1.6269274      26.059229    
    134000   0.56845533     0.73193212     0              1.5841988      25.584204    
    134500   0.54903115     0.71966717     0              1.5428118      25.091411    
    135000   0.54309666     0.69610944     0              1.5103566      24.743212    
    135500   0.52198301     0.67919108     0              1.4617833      24.343404    
    136000   0.51174767     0.64565339     0              1.4129001      23.574275    
    136500   0.48853831     0.61612784     0              1.3485775      23.019731    
    137000   0.47208291     0.63038801     0              1.3381666      23.196897    
    137500   0.4516166      0.57843999     0              1.2555341      22.070578    
    138000   0.4476532      0.58419815     0              1.2553501      22.25001     
    138500   0.43287982     0.5536629      0              1.2026656      21.48343     
    139000   0.42826326     0.53183049     0              1.1739117      21.019674    
    139500   0.40329388     0.52536315     0              1.1300086      20.72016     
    140000   0.39170113     0.52562446     0              1.1128893      20.865459    
    140500   0.37639945     0.47613177     0              1.0404553      19.549222    
    141000   0.36648451     0.47768325     0              1.0271416      19.785271    
    141500   0.3397687      0.45283661     0              0.96224081     19.106027    
    142000   0.33748315     0.42575292     0              0.93173047     18.419553    
    142500   0.31990771     0.41298172     0              0.89260898     18.011473    
    143000   0.30857473     0.38712264     0              0.84975873     17.313008    
    143500   0.28656806     0.38112131     0              0.81076352     17.213026    
    144000   0.28080988     0.34783837     0              0.76884752     16.292609    
    144500   0.26632066     0.3272804      0              0.72656632     15.826303    
    145000   0.24208032     0.32405447     0              0.68699764     15.729938    
    145500   0.23691212     0.28989766     0              0.64509232     14.762453    
    146000   0.22260554     0.27144703     0              0.6051923      14.17388     
    146500   0.20186131     0.26027984     0              0.56292396     13.850774    
    147000   0.19080219     0.23674539     0              0.52280892     13.088188    
    147500   0.17701302     0.21659823     0              0.48198811     12.369653    
    148000   0.16414333     0.19459259     0              0.44068736     11.600667    
    148500   0.14581244     0.181631       0              0.40024286     11.180447    
    149000   0.13320821     0.15922628     0              0.35894102     10.357056    
    149500   0.11874526     0.14078469     0              0.31881561     9.5363475    
    150000   0.10280979     0.12402279     0              0.27816217     8.8952162    
Loop time of 9.52237 on 8 procs for 100000 steps with 2048 atoms

Performance: 9073367.349 tau/day, 10501.583 timesteps/s, 21.507 Matom-step/s
99.5% CPU use with 8 MPI tasks x 1 OpenMP threads

MPI task timing breakdown:
Section |  min time  |  avg time  |  max time  |%varavg| %total
---------------------------------------------------------------
Pair    | 2.0465     | 2.1167     | 2.2064     |   4.3 | 22.23
Neigh   | 3.2166     | 3.4657     | 3.8237     |  10.7 | 36.40
Comm    | 2.4677     | 2.886      | 3.1894     |  12.5 | 30.31
Output  | 0.14838    | 0.14851    | 0.14921    |   0.1 |  1.56
Modify  | 0.54514    | 0.5657     | 0.58025    |   1.5 |  5.94
Other   |            | 0.3398     |            |       |  3.57

Nlocal:            256 ave         262 max         248 min
Histogram: 1 0 1 1 0 1 0 2 1 1
Nghost:         488.25 ave         497 max         483 min
Histogram: 3 0 1 0 0 2 1 0 0 1
Neighs:           1536 ave        1583 max        1493 min
Histogram: 1 1 0 2 1 0 1 0 1 1

Total # of neighbors = 12288
Ave neighs/atom = 6
Neighbor list builds = 26066
Dangerous builds = 0
Total wall time: 0:00:15
