ITEM: TIMESTEP
100000
ITEM: NUMBER OF ATOMS
2048
ITEM: BOX BOUNDS xy xz yz pp pp pp
-7.6888095982862914e-01 1.2302095357258066e+01 0.0000000000000000e+00
0.0000000000000000e+00 1.3070976317086695e+01 -7.6888095982862914e-01
0.0000000000000000e+00 1.2302095357258066e+01 7.6888095982862914e-01
ITEM: ATOMS id type xs ys zs
1658 1 0.111014 0.188417 0.328525
501 1 0.183197 0.249459 0.295334
675 1 0.0658729 0.0758976 0.403318
92 1 0.0432532 0.167601 0.227789
515 1 0.0389371 0.00644931 0.261418
1447 1 0.433417 0.456138 0.123862
374 1 0.294112 0.396248 0.298849
826 1 0.174436 0.199985 0.374952
52 1 0.349386 0.282918 0.223716
30 1 0.33186 0.383337 0.398082
1461 1 0.11062 0.138385 0.191034
1657 1 0.089597 0.502106 0.193724
1264 1 0.0663165 0.386555 0.406595
764 1 0.0531044 0.244019 0.44342
1503 1 0.353586 0.345018 0.292237
1619 1 0.386086 0.466738 0.291653
1299 1 0.0210325 0.0340414 0.112462
1681 1 0.207167 0.0292813 0.24436
1137 1 0.0463616 0.219542 0.282238
44 1 0.0845771 0.429523 0.307541
166 1 0.302952 0.155752 0.0355032
1989 1 0.398769 0.341477 0.0450792
349 1 0.236561 0.269458 0.231685
1914 1 0.295474 0.291406 0.164259
1670 1 0.138804 0.210442 0.033099
736 1 0.00704386 0.00256647 0.432626
1628 1 0.23156 0.183733 0.176645
554 1 0.265279 0.409095 0.21495
509 1 0.0810861 0.126831 0.463942
73 1 0.283177 0.447589 0.444338
1650 1 0.0152115 0.108635 0.100687
463 1 0.275542 0.14438 0.250899
1418 1 0.244854 0.018666 0.0438818
221 1 0.448747 0.18787 0.446302
289 1 0.487652 0.302493 0.19747
1067 1 0.343341 0.376567 0.482616
740 1 0.282671 0.026227 0.347168
1795 1 0.134194 0.285652 0.10619
336 1 0.289558 0.241934 0.417195
2009 1 0.130385 0.0395235 0.290868
283 1 0.439962 0.48775 0.489065
460 1 0.133413 0.18809 0.25165
1047 1 0.274712 0.292703 0.0765581
240 1 0.195025 0.335909 0.246723
145 1 0.251381 0.178428 0.393245
2048 1 0.190739 0.287146 0.373182
167 1 0.131533 0.111375 0.30774
966 1 0.446008 0.107278 0.00368877
1230 1 0.154441 0.207064 0.179462
1644 1 0.299695 0.217133 0.220007
475 1 0.123795 0.133778 0.391059
1669 1 0.25097 0.49146 0.307786
1806 1 0.203616 0.0987113 0.376229
246 1 0.0774565 0.321945 0.141172
1013 1 0.157807 0.359761 0.166798
412 1 0.105929 0.337149 0.223673
603 1 0.258704 0.0690081 0.172468
583 1 0.197958 0.266545 0.053668
127 1 0.0509634 0.334327 0.466691
1601 1 0.214064 0.417882 0.276363
643 1 0.0808888 0.154716 0.0840303
2014 1 0.147953 0.0761021 0.443478
307 1 0.495303 0.358753 0.39357
1155 1 0.0551867 0.136427 0.324183
1754 1 0.396407 0.122583 0.468341
472 1 0.193204 0.14766 0.453793
1344 1 0.037156 0.309745 0.205639
1683 1 0.242449 0.208461 0.0814951
897 1 0.138146 0.391378 0.27304
98 1 0.355567 0.161433 0.120149
730 1 0.306273 0.215667 0.142234
663 1 0.170287 0.466997 0.311169
286 1 0.136721 0.428334 0.374205
982 1 0.0560472 0.297086 0.295501
31 1 0.130963 0.393546 0.460691
1631 1 0.157915 0.286988 0.200566
696 1 0.143869 0.46847 0.454887
850 1 0.199837 0.152939 0.317197
176 1 0.41248 0.24168 0.367047
584 1 0.12094 0.274774 0.461888
305 1 0.356069 0.461256 0.454048
704 1 0.196765 0.153292 0.0465434
1342 1 0.22317 0.0802235 0.0956453
1660 1 0.21465 0.267714 0.138068
1742 1 0.456186 0.402333 0.051518
1583 1 0.111171 0.261793 0.354755
105 1 0.0296744 0.0634319 0.475574
1578 1 0.0522531 0.381599 0.256323
743 1 0.130069 0.0652304 0.218503
497 1 0.296395 0.282483 0.48589
1289 1 0.181382 0.0722278 0.0257498
1905 1 0.158705 0.179304 0.104415
659 1 0.308742 0.233659 0.0394908
1773 1 0.429568 0.163174 0.299065
1172 1 0.0758102 0.0149924 0.193335
1884 1 0.0324873 0.247144 0.353766
391 1 0.412933 0.0133921 0.183994
886 1 0.35388 0.0922733 0.0578785
348 1 0.121053 0.370247 0.093388
1466 1 0.209995 0.196226 0.253614
180 1 0.0830719 0.238578 0.186813
706 1 0.0249776 0.0882709 0.176852
1848 1 0.0842521 0.357456 0.335074
1089 1 0.301967 0.473104 0.0483887
576 1 0.0899607 0.0755959 0.136354
1814 1 0.201289 0.035498 0.328429
575 1 0.445339 0.266727 0.0237929
1064 1 0.146429 0.320417 0.315743
117 1 0.0630866 0.414323 0.488913
1668 1 0.268755 0.138535 0.125394
1467 1 0.181837 0.115533 0.158861
1784 1 0.253352 0.261455 0.339218
479 1 0.42575 0.0461607 0.0597525
2037 1 0.0510341 0.31155 0.0671614
26 1 0.242781 0.483286 0.22294
378 1 0.270308 0.189457 0.309345
1229 1 0.319942 0.125469 0.19197
608 1 0.143709 0.334121 0.0293884
1762 1 0.143332 0.101031 0.0850653
380 1 0.0728698 0.0879676 0.26167
1636 1 0.0481837 0.492483 0.0598391
1614 1 0.0735589 0.0722032 0.0593387
1074 1 0.389717 0.185078 0.0234415
427 1 0.345458 0.288737 0.365294
1645 1 0.163334 0.459044 0.219871
714 1 0.202503 0.335216 0.0981272
126 1 0.0346558 0.395467 0.0579155
218 1 0.41608 0.210924 0.0907366
952 1 0.407313 0.380649 0.410352
2047 1 0.200109 0.109095 0.248371
624 1 0.113938 0.267621 0.262442
49 1 0.388914 0.470977 0.185643
610 1 0.261507 0.369886 0.462268
376 1 0.0415466 0.173569 0.0146415
1043 1 0.481053 0.409714 0.465944
1177 1 0.0371062 0.0557657 0.326264
1757 1 0.0890947 0.390855 -0.000669434
1306 1 0.0592994 0.181645 0.400232
1534 1 0.177353 0.0271307 0.167642
2034 1 0.488703 0.206571 0.0599477
1970 1 0.402375 0.386395 0.19155
1691 1 0.128243 0.0195152 0.0945171
609 1 0.329906 0.025561 0.197945
195 1 0.456158 0.27064 0.133541
206 1 0.0373998 0.178828 0.142126
2039 1 0.359195 0.320317 0.437689
869 1 0.450366 0.0740711 0.131135
1160 1 0.102524 0.417591 0.19717
605 1 0.111142 0.442624 0.0631585
1571 1 0.0500512 0.418126 0.133668
51 1 0.430425 0.0954805 0.229747
1972 1 0.197831 0.377624 0.362635
1401 1 0.42707 0.343447 0.326119
1922 1 0.3648 0.045486 0.333398
1261 1 0.0143734 0.437909 0.363466
881 1 0.314595 0.390143 0.0378075
178 1 0.391419 0.249359 0.443608
269 1 0.336178 0.11789 0.368438
1511 1 0.139814 0.0117539 0.0178891
367 1 0.243479 0.0325189 0.413894
205 1 0.378139 0.0159077 0.112859
1362 1 0.348455 0.428926 0.131296
1220 1 0.456365 0.341095 0.258203
1560 1 0.236815 0.334344 0.314409
1801 1 0.462322 0.279007 0.48867
1168 1 0.204116 0.478508 0.381416
648 1 0.426605 0.0166208 0.278613
817 1 0.0110947 0.253179 0.139363
502 1 0.438653 0.424806 0.25553
555 1 0.484677 0.27962 0.324806
2025 1 0.475812 0.193668 0.370154
1434 1 0.483637 0.384263 0.200601
1813 1 0.436361 0.308881 0.414315
516 1 0.359537 0.065398 0.258275
1339 1 0.218107 0.239325 0.452152
944 1 0.474864 0.473179 0.198327
396 1 0.418615 0.128383 0.388032
1062 1 0.208301 0.31497 0.444451
146 1 0.251045 0.341362 0.0080916
1358 1 0.178905 0.478035 0.0729136
1355 1 0.381374 0.212048 0.247029
1021 1 0.449432 0.378339 0.127521
815 1 0.234038 0.428204 0.140175
1588 1 0.37514 0.0879453 0.162699
587 1 0.350189 0.420874 0.237045
1568 1 0.13354 0.201809 0.437706
1017 1 0.266101 0.173041 0.468927
1688 1 0.462319 0.164798 0.14747
538 1 0.323214 0.315023 0.021887
503 1 0.494539 0.225756 0.187923
1983 1 0.243741 0.350943 0.170309
1164 1 0.324708 0.358071 0.182565
96 1 0.127655 0.331606 0.403518
882 1 0.432702 0.458624 0.411042
362 1 0.273215 0.318378 0.402497
774 1 0.304808 0.472349 0.178684
489 1 0.306148 0.260483 0.285981
1427 1 0.28914 0.0519472 0.487875
803 1 0.39061 0.233485 0.156994
1673 1 0.251679 0.101828 0.0248448
1599 1 0.259301 0.422074 0.363657
1150 1 0.0149755 0.449581 0.193015
163 1 0.256094 0.499402 0.11208
1569 1 0.269581 0.373086 0.0995412
1575 1 0.00577394 0.0221456 0.0139115
1380 1 0.347727 0.197792 0.350392
1366 1 0.39437 0.275992 0.293087
1512 1 0.0659146 0.253801 0.00159527
225 1 0.412145 0.313891 0.173727
1328 1 0.335249 0.17087 0.427434
1016 1 0.328039 0.479504 0.340648
1542 1 0.343077 0.0475554 0.428745
1652 1 0.0073973 0.369644 0.318277
871 1 0.00527447 0.235178 0.214237
193 1 0.448726 0.0604088 0.433573
689 1 0.448715 0.489841 0.0510588
134 1 0.347476 0.140349 0.291697
1664 1 0.274127 0.0598527 0.255726
1873 1 0.375857 0.433744 0.0593113
1297 1 0.240235 0.429463 0.0139248
1207 1 0.26987 0.107194 0.429988
355 1 0.416079 0.346961 0.493243
836 1 0.396317 0.160229 0.193478
456 1 0.187341 0.39937 0.0564205
1719 1 0.432636 0.081041 0.321804
1541 1 0.148043 0.435767 0.133479
666 1 0.319184 0.492279 0.252795
398 1 0.0778652 0.234436 0.088307
1892 1 0.0706832 0.471493 0.415413
455 1 0.195525 0.414543 0.427985
1057 1 0.138484 0.0556474 0.370207
5 1 0.422012 0.130571 0.0724867
1073 1 0.449828 0.254679 0.246932
1210 1 0.287273 0.325099 0.248513
987 1 0.362039 0.268274 0.0877506
493 1 0.35658 0.352598 0.114434
191 1 0.00248329 0.357095 0.118003
769 1 0.00608878 0.44763 0.282848
1592 1 0.447003 0.450128 0.333413
1003 1 0.256219 0.0976028 0.317761
846 1 0.300431 0.0490942 0.106564
545 1 0.374507 0.406367 0.338992
1302 1 0.495228 0.33166 0.0587022
1406 1 0.190916 0.0225015 0.491718
1084 1 0.000317895 0.232106 0.0608035
857 1 0.167404 0.000459146 0.422451
267 1 0.0457637 0.0847479 0.985489
1939 1 0.478588 0.0534716 0.593485
1098 1 0.339035 0.319221 0.720198
862 1 0.311674 0.228805 0.900102
88 1 0.48297 0.0488433 0.914233
1474 1 0.081109 0.360588 0.707337
1123 1 0.0677585 0.149124 0.732342
157 1 0.055395 0.431512 0.741164
1520 1 0.373408 0.249447 0.594156
1810 1 0.190834 0.488068 0.549752
1005 1 0.319862 0.361152 0.873535
1807 1 0.0358094 0.389495 0.908004
903 1 0.414963 0.218664 0.701362
928 1 0.170135 0.179995 0.95912
1730 1 0.226563 0.416898 0.589696
719 1 0.423007 0.173936 0.8621
832 1 0.174171 0.358211 0.594469
873 1 0.490273 0.263801 0.947333
7 1 0.139237 0.424439 0.76386
1496 1 0.394327 0.466927 0.907867
1143 1 0.0518102 0.431551 0.651798
1319 1 0.275711 0.293428 0.864909
1607 1 0.211254 0.326946 0.844537
1860 1 0.452643 0.00520698 0.504895
1755 1 0.159262 0.180172 0.511513
1976 1 0.087439 0.103621 0.625567
1995 1 0.302328 0.106915 0.590012
1104 1 0.439951 0.430533 0.974484
2020 1 0.410882 0.133372 0.937417
756 1 0.414442 0.0528755 0.791001
1182 1 0.178532 0.0796971 0.677839
200 1 0.0508177 0.361085 0.789646
1656 1 0.355472 0.190329 0.65923
753 1 0.0451968 0.0450107 0.582795
993 1 0.230132 0.332582 0.926607
598 1 0.124775 0.0504943 0.594828
649 1 0.187452 0.269442 0.973856
1473 1 0.329479 0.112391 0.511878
382 1 0.214855 0.100205 0.952587
150 1 0.350451 0.0944384 0.974468
1820 1 0.43728 0.384292 0.599292
1244 1 0.371954 0.107021 0.822796
788 1 0.139614 0.194489 0.614671
1874 1 0.371121 0.477411 0.773096
458 1 0.46998 0.437995 0.899395
1830 1 0.141682 0.244121 0.803383
495 1 0.0993724 0.286099 0.67993
1573 1 0.168829 0.458403 0.862175
839 1 0.0506767 0.20761 0.591713
525 1 0.0726185 0.191721 0.52144
1094 1 0.365903 0.405596 0.978144
232 1 0.326785 0.429189 0.907079
797 1 0.213032 0.0293904 0.925251
780 1 0.0719077 0.0121359 0.97526
428 1 0.287116 0.184168 0.612867
74 1 0.314949 0.0560228 0.651487
968 1 0.0602493 0.4261 0.578241
56 1 0.277854 0.182584 0.84944
1822 1 0.199605 0.294185 0.76199
28 1 0.252202 0.394651 0.878909
757 1 0.131757 0.409312 0.53677
1188 1 0.295763 0.259923 0.58028
994 1 0.00876085 0.14129 0.502461
837 1 0.374631 0.397889 0.771218
1145 1 0.112035 0.3137 0.952383
907 1 0.366127 0.254437 0.991767
321 1 0.117357 0.425273 0.920114
1475 1 0.445867 0.222944 0.558019
694 1 0.364409 0.159044 0.588746
644 1 0.342904 0.0544186 0.90771
956 1 0.193405 0.131198 0.737692
184 1 0.465128 0.270352 0.637846
1392 1 0.259072 0.34329 0.775279
1805 1 0.0866271 0.419696 0.84284
1275 1 0.152083 0.453591 0.986774
1428 1 0.0273982 0.335424 0.644373
132 1 0.285528 0.254708 0.79567
1679 1 0.113764 0.245087 0.558401
1896 1 0.0348742 0.151869 0.803978
1232 1 0.391923 0.49553 0.545107
1802 1 0.246979 0.0624544 0.550873
856 1 0.487103 0.0290598 0.822839
1002 1 0.475316 0.34233 0.667626
1581 1 0.24361 0.169448 0.932841
243 1 0.0785358 0.298767 0.599528
459 1 0.272237 0.0329243 0.865433
211 1 0.282706 0.48545 0.778603
2035 1 0.255052 0.0817707 0.73185
1595 1 0.155797 0.0630126 0.865105
1128 1 0.283565 0.101067 0.922719
556 1 0.476829 0.266581 0.766956
1019 1 0.359283 0.019098 0.839045
864 1 0.0387067 0.304985 0.918859
563 1 0.305985 0.415829 0.633931
835 1 0.139729 0.459671 0.609834
1000 1 0.219079 0.214667 0.583401
981 1 0.43952 0.434724 0.819137
319 1 0.369944 0.0371299 0.517563
444 1 0.391859 0.371505 0.682065
1582 1 0.151904 0.123179 0.594737
1236 1 0.101658 0.0488317 0.509042
2041 1 0.20199 0.163045 0.807931
1528 1 0.379193 0.444172 0.697967
559 1 0.154224 0.291153 0.891431
100 1 0.42107 0.296706 0.913974
1735 1 0.237681 0.262738 0.6346
1726 1 0.439872 0.129584 0.805234
685 1 0.3424 0.14008 0.889564
413 1 0.211117 0.440691 0.938089
108 1 0.139006 0.344322 0.804288
1090 1 0.188239 0.314443 0.680048
1187 1 0.307456 0.402752 0.720752
841 1 0.494785 0.380114 0.548362
1170 1 0.257326 0.284401 0.716033
1370 1 0.218632 0.108877 0.867928
1666 1 0.193009 0.371963 0.512588
313 1 0.3249 0.267811 0.66043
143 1 0.0673994 0.268866 0.854331
75 1 0.376378 0.478885 0.987315
1320 1 0.174731 0.0161886 0.737507
976 1 0.0476837 0.268523 0.517706
238 1 0.297925 0.41242 0.796622
1504 1 0.485668 0.149998 0.917053
1955 1 0.359404 0.00718147 0.975897
14 1 0.40299 0.458105 0.617322
540 1 0.0813557 0.156322 0.938428
1733 1 0.0636525 0.348881 0.544229
1201 1 0.413345 0.0699823 0.636817
636 1 0.418084 0.212541 0.786877
420 1 0.142481 0.0733172 0.778285
645 1 0.018041 0.0892026 0.74336
194 1 0.327237 0.0574058 0.77462
1417 1 0.203505 0.0200322 0.603723
739 1 0.0238553 0.0684946 0.913366
529 1 0.0845811 0.115528 0.543024
1966 1 0.0205839 0.13013 0.655021
314 1 0.44379 0.308447 0.568378
791 1 0.0661945 0.491199 0.8016
1060 1 0.196682 0.403166 0.656109
138 1 0.182005 0.258415 0.518835
870 1 0.161194 0.211824 0.885298
384 1 0.458205 0.372209 0.745804
1819 1 0.492892 0.332501 0.814763
1984 1 0.130902 0.206147 0.733796
1256 1 0.427657 0.301913 0.717074
773 1 0.0657662 0.209954 0.670652
1826 1 0.335603 0.326922 0.797125
574 1 0.410484 0.381861 0.908106
1134 1 0.0670852 0.0623858 0.803252
1290 1 0.472939 0.172582 0.740861
809 1 0.435771 0.04192 0.719014
699 1 0.369351 0.193495 0.502765
1303 1 0.259875 0.35808 0.671327
1127 1 0.0826748 0.0107959 0.889559
1288 1 0.42036 0.414924 0.522734
161 1 0.121899 0.148865 0.681165
400 1 0.145526 0.133301 0.891667
771 1 0.173676 0.226972 0.67726
767 1 0.442417 0.463822 0.742263
13 1 0.259289 0.470706 0.652013
1792 1 0.292668 0.134005 0.681572
1887 1 0.11867 0.0721077 0.933467
693 1 0.183882 0.367977 0.736521
1282 1 0.123867 0.421821 0.68514
1068 1 0.037529 0.471288 0.884503
356 1 0.197185 0.152147 0.65308
1871 1 0.132955 0.316476 0.52608
568 1 0.216663 0.216856 0.755192
548 1 0.415363 0.356175 0.835416
1108 1 0.353545 0.276211 0.857551
379 1 0.430385 0.191104 0.629017
1559 1 0.42186 0.132805 0.687568
261 1 0.0865387 0.196787 0.857519
1846 1 0.35791 0.384713 0.587667
1390 1 0.120355 0.115916 0.995967
552 1 0.109815 0.233438 0.943002
1770 1 0.0901399 0.0745657 0.708745
1126 1 0.255458 0.0140818 0.6976
1048 1 0.287233 0.0436166 0.986305
1811 1 0.420654 0.0863216 0.879272
496 1 0.0991573 0.369046 0.630175
470 1 0.222501 0.0724461 0.798282
601 1 0.171754 0.377094 0.968971
885 1 0.275749 0.212218 0.689535
617 1 0.237157 0.0878133 0.626861
1790 1 0.474232 0.139979 0.566473
407 1 0.36854 0.423453 0.845139
727 1 0.285936 0.170508 0.764997
916 1 0.329852 0.0347218 0.578683
1780 1 0.0271374 0.281837 0.708149
678 1 0.37276 0.00700422 0.65408
866 1 0.349141 0.233595 0.746773
136 1 0.28958 0.103616 0.826253
650 1 0.452404 0.259775 0.854648
1120 1 0.456451 0.190301 0.978078
1382 1 0.367107 0.076644 0.707671
1286 1 0.0327198 0.336833 0.989552
1765 1 0.320924 0.435018 0.520817
1129 1 0.244009 0.142809 0.538473
622 1 0.162827 0.101752 0.515483
1439 1 0.254363 0.478502 0.882597
1964 1 0.243568 0.310334 0.533612
1284 1 0.230842 0.244766 0.917232
1192 1 0.342897 0.322454 0.542941
1436 1 0.295671 0.478974 0.963433
1148 1 0.486606 0.350074 0.900958
1910 1 0.376384 0.136689 0.747982
1985 1 0.440225 0.341649 0.977861
381 1 0.355416 0.323812 0.947291
707 1 0.322283 0.17419 0.95968
341 1 0.313242 0.482711 0.714
572 1 0.0680761 0.490551 0.987747
1235 1 -0.000368321 0.25094 0.64244
1301 1 0.092992 0.297167 0.760885
164 1 0.208407 0.419858 0.812414
1781 1 0.430102 0.0391094 0.979226
878 1 0.463622 0.0945719 0.502549
1551 1 0.279588 0.37635 0.545204
1880 1 0.0945398 0.343905 0.867633
1693 1 0.228399 0.43266 0.725804
1816 1 0.282037 0.47197 0.576426
1787 1 0.279542 0.401542 0.959984
1629 1 0.220271 0.250897 0.833444
288 1 0.351693 0.188118 0.823005
306 1 0.10219 0.00764335 0.654341
333 1 0.120975 0.144263 0.803442
77 1 0.409447 0.289253 0.794672
469 1 0.0598649 0.229512 0.78192
1393 1 0.299996 0.200867 0.531861
1734 1 0.232115 0.436584 0.505873
1409 1 0.457602 0.417652 0.677654
919 1 0.0712037 0.110756 0.869573
602 1 0.298784 0.329257 0.613424
1857 1 0.395693 0.311467 0.640051
1532 1 0.247837 0.214356 0.992495
1697 1 0.174488 0.377113 0.890735
927 1 0.00984584 0.117071 0.581772
404 1 0.489943 0.458891 0.614876
392 1 0.490215 0.12184 0.656706
582 1 0.167133 0.27888 0.612274
1081 1 0.030794 0.221956 0.935521
669 1 0.0168309 0.429983 0.980015
1979 1 0.0139813 0.0220126 0.846011
4 1 0.00752781 0.198248 0.858034
1316 1 0.177683 0.480881 0.672388
551 1 0.387126 0.225522 0.926333
1399 1 0.398997 0.106288 0.547751
2033 1 0.0971982 0.497974 0.691591
999 1 0.390611 0.271518 0.51583
1686 1 0.28797 0.277975 0.955646
596 1 0.502492 0.190581 0.823701
300 1 0.0152007 0.0272088 0.670787
394 1 0.456813 0.494309 0.671352
872 1 0.127965 0.00823694 0.818611
130 1 0.260958 0.553193 0.0509714
920 1 0.187748 0.582874 0.185598
1675 1 0.0775662 0.986536 0.359926
1119 1 0.405398 0.846655 0.332081
1796 1 0.254155 0.769697 0.217121
170 1 0.197254 0.703963 0.200945
1443 1 0.233367 0.597976 0.321197
917 1 0.0690519 0.638706 0.40998
667 1 0.112529 0.579006 0.303945
1917 1 0.186682 0.788083 0.340835
1853 1 0.0281172 0.915595 0.432297
1305 1 0.109025 0.81062 0.213486
528 1 0.156411 0.903314 0.288959
1961 1 0.0578234 0.824224 0.0648491
237 1 0.128634 0.824707 0.0320751
1640 1 0.141792 0.873594 0.362706
731 1 0.126164 0.934952 0.0199516
1307 1 0.140698 0.714653 0.144968
1321 1 0.228262 0.952733 0.376521
1061 1 0.447635 0.86155 0.491165
1957 1 0.132755 0.537632 0.0412143
280 1 0.128641 0.703979 0.400616
1767 1 0.0233255 0.759674 0.0449357
424 1 0.0196042 0.548822 0.203233
737 1 0.00111873 0.628425 0.00916945
902 1 0.0942249 0.882862 0.0941949
1329 1 0.0914767 0.958232 0.141189
621 1 0.165022 0.699685 0.0740933
1242 1 0.341063 0.925355 0.0823635
520 1 0.11907 0.568168 0.225562
1731 1 0.185113 0.509198 0.156099
1761 1 0.207603 0.91939 0.235654
1400 1 0.238338 0.814395 0.146286
18 1 0.137506 0.591744 0.116277
1522 1 0.0450751 0.819682 0.302938
521 1 0.150077 0.957333 0.353534
715 1 0.183471 0.623053 0.0592588
1696 1 0.208509 0.754905 0.41647
1869 1 0.0512032 0.738535 0.375544
708 1 0.17511 0.795233 0.256662
3 1 0.117817 0.586137 0.381182
1146 1 0.383525 0.906528 0.44424
1863 1 0.119408 0.832035 0.296438
595 1 0.22919 0.85071 0.276306
128 1 0.220546 0.733082 0.137859
1824 1 0.171631 0.723052 0.293209
810 1 0.000209831 0.971645 0.364192
513 1 0.161894 0.651394 0.345311
942 1 0.383018 0.531012 0.0473707
1109 1 0.426716 0.540551 0.130282
72 1 0.341026 0.543043 0.194254
1398 1 0.260304 0.557594 0.170906
1204 1 0.464577 0.896289 0.116433
1897 1 0.36344 0.743286 0.493639
1225 1 0.18028 0.782936 0.0863718
654 1 0.173958 0.714375 0.474105
11 1 0.0388344 0.604287 0.34474
53 1 0.188363 0.944641 0.15192
541 1 0.255389 0.624611 0.198557
1845 1 0.118063 0.652296 0.266748
1855 1 0.175093 0.778961 0.175676
1219 1 0.306535 0.83915 0.284467
220 1 0.12654 0.729118 0.224122
1540 1 0.181602 0.959498 0.0654885
1737 1 0.0715859 0.877709 0.000453975
1079 1 0.298977 0.507484 0.494191
477 1 0.240142 0.679921 0.31023
110 1 0.19656 0.637693 0.258854
1198 1 0.213377 0.505612 0.00612112
332 1 0.33186 0.850339 0.0482654
492 1 0.46975 0.571644 0.477001
1518 1 0.30887 0.989598 0.280717
1174 1 0.147096 0.627332 0.439703
1587 1 0.312882 0.972816 0.409815
534 1 0.203213 0.65336 0.137093
1140 1 0.0159079 0.954515 0.142041
672 1 0.256466 0.897971 0.173693
853 1 0.127963 0.911244 0.201154
2026 1 0.467523 0.798484 0.287556
1928 1 0.171756 0.858975 0.120716
1526 1 0.123002 0.636918 0.012805
1367 1 0.0922785 0.76146 0.286478
1322 1 0.19335 0.827773 0.414792
405 1 0.0256015 0.803309 0.134953
1938 1 0.446623 0.550853 0.405878
1431 1 0.203323 0.849573 0.200692
1426 1 0.0179582 0.530618 0.38772
1124 1 0.47787 0.673576 0.286304
628 1 0.49404 0.542127 0.231501
1803 1 0.107651 0.512665 0.359391
182 1 0.380738 0.674537 0.462957
1510 1 0.0190385 0.793108 0.228934
171 1 0.0749443 0.574362 0.155948
388 1 0.223243 0.499422 0.45755
535 1 0.37115 0.543212 0.477463
1157 1 0.107517 0.505349 0.276808
203 1 0.482639 0.979288 0.439892
1724 1 0.291132 0.585799 0.445814
1249 1 0.017929 0.681762 0.0910944
1283 1 0.248897 0.687644 0.0850636
1111 1 0.0161696 0.894096 0.0715423
1768 1 0.348279 0.509989 0.11989
1255 1 0.370118 0.963002 0.342809
1241 1 0.0912076 0.765433 0.457443
908 1 0.104173 0.805691 0.130755
1147 1 0.0886362 0.943488 0.282416
1605 1 0.281307 0.728814 0.373477
1879 1 0.212835 0.831669 0.0323976
1862 1 0.0300548 0.824941 0.493726
1692 1 0.26675 0.902143 0.0249612
2006 1 0.292308 0.711114 0.00889894
1114 1 0.0319606 0.520469 0.285018
512 1 0.194342 0.527029 0.263375
973 1 0.0695466 0.871583 0.248518
285 1 0.259777 0.770445 0.2977
1932 1 0.438876 0.729783 0.434123
363 1 0.250521 0.920375 0.0989008
725 1 0.322005 0.87622 0.490825
360 1 0.136417 0.939892 0.487309
1194 1 0.432185 0.659026 0.216019
995 1 0.373036 0.969012 0.236876
910 1 0.123364 0.853923 0.445097
1676 1 0.0551889 0.892662 0.337346
1977 1 0.139675 0.639997 0.184217
1231 1 0.0818751 0.545803 0.437815
1769 1 0.289981 0.931605 0.33276
1877 1 0.163121 0.557368 0.488705
1014 1 0.23444 0.633948 0.397832
1460 1 0.467756 0.964587 0.245549
1211 1 0.0722269 0.986242 0.0529677
22 1 0.197551 0.554039 0.0969706
1213 1 0.183209 0.913086 0.430187
1412 1 0.424509 0.738543 0.252339
1294 1 0.134191 0.78157 0.393945
1259 1 0.339292 0.53207 0.396152
1403 1 0.354163 0.567706 0.268735
1525 1 0.108365 0.507492 0.123509
1821 1 0.221743 0.97125 0.295177
977 1 0.189434 0.564368 0.413605
197 1 0.500888 0.909151 0.206058
144 1 0.44318 0.701579 0.359762
1136 1 0.248029 0.976698 0.197519
116 1 0.0606709 0.816316 0.382869
1096 1 0.147559 0.975718 0.238047
861 1 0.0603189 0.685219 0.0320563
1935 1 0.423188 0.913358 0.380541
1022 1 0.439256 0.600483 0.268598
1545 1 0.390872 0.781601 0.190503
1423 1 0.453026 0.817912 0.0441734
1257 1 0.249558 0.841596 0.469188
1502 1 0.368419 0.656086 0.271198
1234 1 0.192229 0.754398 0.0123626
245 1 0.296683 0.637396 0.0537741
840 1 0.38057 0.784709 0.0182452
1999 1 0.378497 0.57391 0.345103
1934 1 0.389267 0.926566 0.143824
1086 1 0.28184 0.892997 0.4072
273 1 0.308863 0.955156 0.144394
244 1 0.270174 0.556418 0.245218
843 1 0.456666 0.577307 0.0421539
923 1 0.451069 0.78327 0.363241
779 1 0.238407 0.997474 0.120785
911 1 0.179269 0.541101 0.336443
1611 1 0.00827343 0.527385 0.469366
1186 1 0.401791 0.888462 0.05408
1051 1 0.0403248 0.696375 0.238036
84 1 0.253348 0.769478 0.0652884
701 1 0.0801449 0.680918 0.336373
1076 1 0.280192 0.9137 0.255991
1058 1 0.29903 0.557901 0.319713
292 1 0.256054 0.544027 0.384614
282 1 0.321752 0.783443 0.146734
342 1 0.289806 0.689727 0.153435
1173 1 0.439449 0.624244 0.338304
635 1 0.486066 0.888473 0.430484
1732 1 0.0512293 0.73081 0.1513
1477 1 0.0943123 0.656916 0.115683
1603 1 0.458175 0.833835 0.213676
271 1 0.391593 0.84697 0.137114
361 1 0.0334108 0.510896 0.134214
1152 1 0.494812 0.894391 0.291083
266 1 0.484108 0.960908 0.0661612
986 1 0.412722 0.521865 0.236175
671 1 0.256154 0.955652 0.463887
674 1 0.295837 0.622823 0.267343
741 1 0.388521 0.617407 0.0515886
1720 1 0.291626 0.761706 0.456924
1424 1 0.0876181 0.996885 0.441607
1031 1 0.358702 0.897779 0.28063
985 1 0.436123 0.531676 0.312599
1557 1 0.460749 0.805669 0.124865
1698 1 0.397784 0.658382 0.118554
437 1 0.426932 0.936334 0.301934
1007 1 0.420795 0.837043 0.411598
499 1 0.4035 0.588551 0.192438
345 1 0.0565942 0.608908 0.247481
1228 1 0.323075 0.717629 0.311617
586 1 0.00973789 0.747201 0.295246
1913 1 0.292338 0.795877 0.0016033
1554 1 0.163967 0.791275 0.485261
1117 1 0.38442 0.770417 0.313807
294 1 0.323072 0.794647 0.350641
1171 1 0.262755 0.814498 0.390645
1248 1 0.352005 0.887236 0.363765
1495 1 0.108006 0.923766 0.411674
1027 1 0.37566 0.666862 0.350186
1791 1 0.371282 0.790106 0.0931322
1359 1 0.407857 0.972001 0.0537106
627 1 0.366096 0.608557 0.424001
65 1 0.481157 0.600172 0.174779
1038 1 0.435882 0.727781 0.0615731
1414 1 0.333967 0.772439 0.248552
975 1 0.302611 0.837872 0.203656
1265 1 0.302348 0.670311 0.426983
57 1 0.25255 0.697162 0.476069
62 1 0.338447 0.634406 0.199784
1059 1 0.0681279 0.870916 0.168665
955 1 0.450738 0.637036 0.421888
1453 1 0.283735 0.615984 0.126412
1835 1 0.488846 0.684968 0.0129437
418 1 0.498995 0.847538 0.359771
900 1 0.225519 0.613742 0.474598
639 1 0.34469 0.900484 0.203854
1672 1 0.349977 0.714801 0.0861782
801 1 0.106809 0.749332 0.079242
375 1 0.469801 0.750769 0.18727
1915 1 0.419662 0.907856 0.228651
1902 1 0.279309 0.692433 0.233892
1596 1 0.459615 0.654649 0.0804046
90 1 0.333835 0.830567 0.427678
160 1 0.107209 0.682737 0.473893
1378 1 0.368327 0.741654 0.393376
229 1 0.377392 0.696229 0.0169264
1527 1 0.0424416 0.655053 0.173352
40 1 0.358093 0.705216 0.208644
1537 1 0.387381 0.830723 0.256301
1891 1 0.228668 0.880716 0.347647
426 1 0.408069 0.73361 0.136618
67 1 0.0643076 0.573925 0.0759035
1600 1 0.302475 0.629289 0.358804
712 1 0.302577 0.860914 0.124516
1973 1 0.447228 0.986865 0.366015
1190 1 0.46043 0.981122 0.136636
1817 1 0.0777187 0.60498 0.488695
481 1 0.354169 0.592648 0.118455
2042 1 0.0195102 0.933293 0.22745
296 1 0.476503 0.684169 0.151259
436 1 0.0262026 0.685287 0.451236
845 1 -0.000611593 0.608308 0.427301
491 1 0.0065245 0.665392 0.299997
1689 1 0.402227 0.981635 0.430774
888 1 0.384473 0.81664 0.491956
1544 1 0.34574 0.963315 0.482989
1269 1 0.453593 0.650778 0.500324
214 1 0.320104 0.991025 0.0453719
260 1 0.0683896 0.892096 0.497623
765 1 0.138887 0.98949 0.548439
833 1 0.228498 0.626983 0.821355
1539 1 0.297357 0.619533 0.913827
177 1 0.26793 0.652146 0.68034
1334 1 0.0841411 0.575757 0.738933
606 1 0.285929 0.848146 0.724859
637 1 0.431167 0.629025 0.590511
268 1 0.405386 0.705061 0.843351
1909 1 0.227956 0.844014 0.954323
957 1 0.202424 0.945589 0.526607
183 1 0.289542 0.735302 0.67315
1034 1 0.0600263 0.966933 0.824157
2003 1 0.143633 0.929065 0.629577
933 1 0.17849 0.898154 0.982358
612 1 0.106619 0.508024 0.51442
1533 1 0.223217 0.916237 0.918712
1764 1 0.191966 0.972289 0.668236
47 1 0.473676 0.528205 0.567762
174 1 0.0962869 0.924507 0.945564
1193 1 0.386228 0.649806 0.776014
9 1 0.10027 0.660254 0.553354
1978 1 0.233558 0.82834 0.664181
1959 1 0.124742 0.943268 0.702736
236 1 0.0266452 0.680011 0.546212
1921 1 0.42484 0.797027 0.584906
277 1 0.316378 0.891046 0.923413
1131 1 0.325087 0.694664 0.613154
327 1 0.00849564 0.534912 0.927641
1218 1 0.198994 0.853689 0.778807
272 1 0.117769 0.935784 0.87387
114 1 0.345027 0.579658 0.851663
1779 1 0.334415 0.924104 0.558512
1594 1 0.274116 0.549563 0.610332
93 1 0.106084 0.636789 0.788751
230 1 0.271689 0.786254 0.869385
1009 1 0.38841 0.899234 0.62629
505 1 0.23011 0.948376 0.602669
1555 1 0.234124 0.584187 0.663604
1029 1 0.131471 0.578319 0.55431
1918 1 0.172617 0.639421 0.681574
1842 1 0.383526 0.626709 0.920457
597 1 0.268612 0.888388 0.806634
411 1 0.0146633 0.909574 0.562304
1798 1 0.44973 0.677922 0.909889
762 1 0.300926 0.966616 0.791802
99 1 0.227291 0.991056 0.79593
906 1 0.0144267 0.784711 0.56952
2043 1 0.327166 0.850722 0.858445
691 1 0.341532 0.698836 0.881718
1368 1 0.391782 0.895633 0.906382
417 1 0.330483 0.553506 0.554
1023 1 0.323417 0.975955 0.701286
1624 1 0.388875 0.570192 0.975178
1838 1 0.49751 0.605474 0.772819
616 1 0.206915 0.514668 0.789627
1700 1 0.168736 0.789357 0.937081
1858 1 0.384443 0.804135 0.788912
430 1 0.442948 0.75334 0.679137
468 1 0.301541 0.976614 0.62169
1006 1 0.342669 0.5797 0.640343
2036 1 0.341389 0.896507 0.700719
1095 1 0.217661 0.715173 0.693482
1457 1 0.166505 0.561101 0.970542
770 1 0.350639 0.738502 0.952539
2001 1 0.457811 0.743571 0.759036
1266 1 0.0490712 0.599226 0.584103
473 1 0.0480902 0.58209 0.661618
800 1 0.340292 0.531648 0.919798
969 1 0.36944 0.7552 0.64812
1952 1 0.0618393 0.74496 0.917176
1464 1 0.365236 0.712157 0.720852
190 1 0.133417 0.6893 0.629277
1538 1 0.27559 0.792205 0.599231
1825 1 0.412762 0.80934 0.942938
716 1 0.222986 0.619813 0.739159
1456 1 0.405011 0.585377 0.532268
1340 1 0.16532 0.556234 0.717903
1662 1 0.064912 0.57116 0.979503
1273 1 0.14157 0.836487 0.642766
179 1 0.478076 0.653116 0.647135
253 1 0.180587 0.704206 0.555905
1331 1 0.0565911 0.887794 0.855011
395 1 0.452154 0.779042 0.513106
1626 1 0.0676724 0.652926 0.951729
728 1 0.118095 0.602775 0.630066
1998 1 0.460183 0.907091 0.672113
1154 1 0.00799136 0.853051 0.634486
758 1 0.166256 0.698423 0.761235
1151 1 0.198162 0.637981 0.595667
1135 1 0.252527 0.856956 0.87905
1535 1 0.375844 0.863851 0.982995
1944 1 0.269436 0.687628 0.932193
37 1 0.442077 0.516775 0.971507
1237 1 0.285275 0.629454 0.608666
680 1 0.0491211 0.663258 0.634021
1020 1 0.218786 0.636733 0.897176
2018 1 0.0169714 0.786988 0.967483
323 1 0.201413 0.74339 0.814818
390 1 0.0430622 0.724459 0.697064
1025 1 0.168726 0.581861 0.792064
66 1 0.097451 0.739181 0.533723
918 1 0.053806 0.86074 0.7825
1388 1 0.45914 0.806102 0.80856
1105 1 0.3253 0.828214 0.659975
1552 1 0.484943 0.747584 0.611698
1258 1 0.492235 0.526137 0.903792
1852 1 0.195873 0.932553 0.756705
1330 1 0.0497281 0.653671 0.83121
1992 1 0.250604 0.558148 0.865189
120 1 0.090923 0.807241 0.867609
172 1 0.0960403 0.529953 0.915446
1463 1 0.436327 0.878724 0.56609
1950 1 0.0909857 0.653818 0.701513
1351 1 0.353527 0.759564 0.569195
1296 1 0.170136 0.637772 0.519917
681 1 0.273489 0.947465 0.868861
449 1 0.0452062 0.788152 0.745456
990 1 0.330473 0.926502 0.988944
1385 1 0.260201 0.612797 0.984453
1579 1 0.182725 0.534036 0.608498
1309 1 0.0667232 0.5707 0.823426
409 1 0.444229 0.862706 0.741206
1476 1 0.36727 0.644702 0.685845
1389 1 0.352257 0.634155 0.573315
1953 1 0.0422187 0.941143 0.711563
962 1 0.236899 0.519398 0.713933
1318 1 0.111293 0.824319 0.529534