ITEM: TIMESTEP
100000
ITEM: NUMBER OF ATOMS
2048
ITEM: BOX BOUNDS xy xz yz pp pp pp
-7.2723630353713908e-01 1.1635780856594225e+01 0.0000000000000000e+00
0.0000000000000000e+00 1.2363017160131365e+01 -7.2723630353713908e-01
0.0000000000000000e+00 1.1635780856594225e+01 7.2723630353713908e-01
ITEM: ATOMS id type xs ys zs
6 1 0.130029 0.0616563 0.0694041
9 1 0.258423 0.0610575 0.0630396
15 1 0.0638543 0.128935 0.06418
19 1 0.198786 0.126341 0.0610703
20 1 0.128635 0.188575 0.07097
24 1 0.257063 0.187996 0.06908
31 1 0.0638998 0.245129 0.060816
35 1 0.194543 0.242622 0.061504
36 1 0.133988 0.303405 0.0607609
40 1 0.255885 0.308939 0.062376
47 1 0.0676852 0.364487 0.0665078
51 1 0.195304 0.363556 0.0688032
52 1 0.125374 0.432999 0.0598933
56 1 0.245349 0.426858 0.0647765
65 1 0.0697103 0.0555297 0.13175
67 1 0.202653 0.0566733 0.126423
68 1 0.125965 0.0541108 0.195731
70 1 0.259456 0.0513131 0.187828
74 1 0.0704237 0.176956 0.129504
75 1 0.0761405 0.119955 0.189681
77 1 0.140827 0.119672 0.127786
78 1 0.196595 0.182431 0.123034
79 1 0.206295 0.11088 0.200059
80 1 0.145263 0.173899 0.190521
81 1 0.256969 0.116369 0.122618
84 1 0.265438 0.175363 0.184868
90 1 0.0721191 0.298021 0.131625
91 1 0.0766855 0.240968 0.193766
93 1 0.135589 0.235854 0.134131
94 1 0.190874 0.298238 0.126308
95 1 0.201226 0.233658 0.191052
96 1 0.138494 0.295808 0.189503
97 1 0.258177 0.245566 0.121493
100 1 0.26017 0.303276 0.184319
106 1 0.0651774 0.424306 0.121982
107 1 0.0757961 0.359456 0.188704
109 1 0.134807 0.365189 0.121032
110 1 0.190097 0.425085 0.117894
111 1 0.196899 0.358974 0.181151
112 1 0.139914 0.42886 0.183313
113 1 0.257542 0.368604 0.130264
116 1 0.259642 0.436124 0.187774
129 1 0.0851744 0.0438566 0.261464
131 1 0.194503 0.0442916 0.247484
132 1 0.147604 0.0336708 0.318907
134 1 0.267102 0.0460634 0.301024
138 1 0.0756951 0.170864 0.251894
139 1 0.0858387 0.104772 0.314496
141 1 0.139134 0.107324 0.25122
142 1 0.204281 0.172715 0.250152
143 1 0.206134 0.106982 0.310193
144 1 0.144265 0.168798 0.302993
145 1 0.270021 0.122951 0.251596
148 1 0.274885 0.168344 0.321348
154 1 0.0852116 0.298338 0.252836
155 1 0.0840639 0.233632 0.315205
157 1 0.139135 0.237901 0.247914
158 1 0.201423 0.2977 0.249278
159 1 0.21219 0.232791 0.314032
160 1 0.155078 0.296837 0.310363
161 1 0.266948 0.23647 0.242336
164 1 0.268688 0.289573 0.301044
170 1 0.0810689 0.418536 0.241514
171 1 0.0837445 0.349051 0.308201
173 1 0.141018 0.35835 0.245366
174 1 0.198332 0.419853 0.251149
175 1 0.211258 0.353221 0.304225
176 1 0.139825 0.421528 0.30714
177 1 0.264684 0.362682 0.236909
180 1 0.265995 0.425855 0.30588
193 1 0.0930841 0.0333398 0.376224
194 1 0.022578 0.0316207 0.434952
195 1 0.208508 0.0367035 0.373621
196 1 0.157347 0.0233931 0.441149
198 1 0.275579 0.0251062 0.444234
202 1 0.0865791 0.164635 0.366159
203 1 0.0932158 0.0823536 0.443817
204 1 0.0271174 0.164631 0.432062
205 1 0.145832 0.0894658 0.380777
206 1 0.210183 0.157895 0.373638
207 1 0.213523 0.093103 0.436596
208 1 0.149365 0.155961 0.429477
209 1 0.264725 0.0972361 0.370296
212 1 0.280324 0.155563 0.436243
218 1 0.0967394 0.288797 0.373531
219 1 0.0882112 0.229755 0.434568
220 1 0.0215238 0.289634 0.424631
221 1 0.148425 0.21975 0.369318
222 1 0.219581 0.291357 0.366131
223 1 0.219791 0.219446 0.4334
224 1 0.162826 0.285907 0.430888
225 1 0.275047 0.22598 0.376183
228 1 0.2759 0.290127 0.43725
234 1 0.0870687 0.411342 0.370661
235 1 0.0880881 0.3387 0.437855
236 1 0.0200024 0.412155 0.432537
237 1 0.154768 0.351072 0.372496
238 1 0.211684 0.415055 0.369509
239 1 0.214045 0.355506 0.434118
240 1 0.1467 0.412072 0.426448
241 1 0.274298 0.361727 0.365376
244 1 0.272255 0.410414 0.430874
250 1 0.0915826 0.474776 0.427965
252 1 0.216891 0.474841 0.42849
253 1 0.272178 0.47798 0.367252
217 1 0.0232377 0.227392 0.369295
233 1 0.0219693 0.35565 0.370268
251 1 0.147179 0.475426 0.372175
201 1 0.0358316 0.0953479 0.382747
249 1 0.0250852 0.473106 0.365996
130 1 0.0190346 0.041561 0.30573
289 1 0.285906 0.211532 0.495052
140 1 0.0255319 0.159291 0.309985
127 1 0.378649 0.494504 0.119396
188 1 0.208135 0.47929 0.308332
189 1 0.266327 0.49076 0.247825
186 1 0.0850942 0.484687 0.305949
125 1 0.261522 0.493035 0.112642
23 1 0.316413 0.125418 0.059718
172 1 0.0278925 0.41446 0.305272
39 1 0.319602 0.246741 0.0679934
187 1 0.135864 0.488073 0.243574
123 1 0.135786 0.491241 0.117456
73 1 0.00270247 0.12077 0.135356
63 1 0.320724 0.496939 0.0521088
153 1 0.0115231 0.232556 0.255652
82 1 0.319802 0.180085 0.127117
278 1 0.467724 0.153955 0.500121
62 1 0.191388 0.492457 0.0589134
135 1 0.45648 0.0452578 0.259117
137 1 0.0172896 0.10622 0.249526
169 1 0.0084046 0.351758 0.244675
156 1 0.0127767 0.292976 0.316299
185 1 0.0142669 0.483455 0.257398
105 1 0.00964846 0.362706 0.13709
122 1 0.0707859 0.483339 0.185997
76 1 0.0147153 0.179765 0.189712
89 1 0.0101327 0.239705 0.130962
98 1 0.319717 0.305569 0.117746
298 1 0.0955149 0.414205 0.491894
4 1 0.124364 0.00832189 0.0135219
210 1 0.336794 0.157676 0.374652
61 1 0.067981 0.492977 0.055629
108 1 0.0159786 0.425683 0.192546
55 1 0.310844 0.373698 0.0590597
16 1 0.000408488 0.178759 0.0705148
290 1 0.342239 0.280277 0.492648
574 1 0.190013 0.000865011 0.0676847
124 1 0.196378 0.491981 0.187393
114 1 0.319761 0.436326 0.11847
115 1 0.328284 0.364231 0.182034
227 1 0.341936 0.217409 0.426731
57 1 0.372997 0.378333 -0.000581174
305 1 0.276597 0.351362 0.494937
214 1 0.454995 0.167286 0.372891
576 1 0.442457 0.00219303 0.0576615
71 1 0.440619 0.0641292 0.116532
37 1 0.254239 0.255943 0.0016336
168 1 0.393881 0.29247 0.308093
166 1 0.45507 0.300391 0.252212
213 1 0.398181 0.0995187 0.373748
92 1 0.00217773 0.292289 0.192255
255 1 0.396694 0.483057 0.366959
293 1 0.395001 0.219503 0.489717
199 1 0.460189 0.0381964 0.373992
242 1 0.339387 0.410302 0.36872
59 1 0.442049 0.37113 0.0579841
28 1 0.380901 0.18989 0.0634146
243 1 0.341941 0.349141 0.435898
118 1 0.450189 0.434316 0.121051
104 1 0.393078 0.301945 0.185605
43 1 0.448664 0.249152 0.064116
12 1 0.375578 0.0655749 0.0485886
232 1 0.401949 0.286415 0.434683
117 1 0.379743 0.3658 0.112322
190 1 0.330601 0.47723 0.309594
27 1 0.444316 0.126412 0.0549606
183 1 0.447667 0.353956 0.307492
248 1 0.40898 0.418904 0.432866
69 1 0.329248 0.0592322 0.11983
167 1 0.460921 0.233226 0.311396
245 1 0.392443 0.346886 0.370186
315 1 0.159031 0.474053 0.493865
99 1 0.326132 0.244526 0.182235
256 1 0.46607 0.474087 0.439145
128 1 0.446332 0.490904 0.184668
230 1 0.458839 0.296494 0.369112
246 1 0.460311 0.421865 0.367344
146 1 0.337381 0.170896 0.246831
151 1 0.462872 0.10139 0.315949
226 1 0.334107 0.290913 0.368054
87 1 0.45444 0.115603 0.193896
44 1 0.384117 0.303344 0.0539272
191 1 0.384094 0.488863 0.248078
215 1 0.466142 0.0981046 0.431578
103 1 0.452322 0.242499 0.189246
178 1 0.321721 0.429205 0.247799
192 1 0.457163 0.488115 0.308113
126 1 0.322588 0.487661 0.181385
83 1 0.325333 0.112457 0.189698
197 1 0.342429 0.0383915 0.364752
231 1 0.460479 0.224815 0.442434
216 1 0.401349 0.166347 0.429502
133 1 0.324592 0.0485129 0.245262
88 1 0.394799 0.179217 0.189412
85 1 0.383895 0.125326 0.128481
179 1 0.327896 0.355726 0.305206
165 1 0.392901 0.233596 0.258539
211 1 0.34549 0.0871456 0.438453
152 1 0.397143 0.159357 0.312281
150 1 0.455297 0.1811 0.254305
247 1 0.458708 0.352473 0.432944
184 1 0.39078 0.418857 0.307268
254 1 0.335803 0.467721 0.428164
163 1 0.335483 0.233421 0.31016
136 1 0.396672 0.0473859 0.309708
181 1 0.387674 0.35602 0.24582
86 1 0.455018 0.170334 0.117785
120 1 0.384771 0.432163 0.186227
149 1 0.391664 0.108131 0.245164
162 1 0.324041 0.302119 0.244954
72 1 0.39032 0.0507079 0.18336
147 1 0.334345 0.100222 0.308874
102 1 0.445464 0.314957 0.126993
229 1 0.398265 0.229578 0.366673
60 1 0.375811 0.435181 0.0596964
101 1 0.388189 0.243147 0.129565
200 1 0.405936 0.0305991 0.434422
119 1 0.441109 0.365865 0.185441
182 1 0.452115 0.424341 0.24148
21 1 0.25102 0.130778 0.00677442
266 1 0.0895851 0.155196 0.491043
49 1 0.125571 0.37313 0.000432908
297 1 0.0366089 0.353024 0.49636
64 1 0.446483 0.493056 0.0664394
121 1 0.0121681 0.487768 0.12342
22 1 0.30893 0.193426 0.000445689
50 1 0.186372 0.436072 -0.000193853
48 1 0.00597895 0.429673 0.055833
32 1 0.00825775 0.307589 0.0697254
34 1 0.190322 0.314816 0.00321663
3 1 -0.000506062 0.0672158 0.075777
274 1 0.343587 0.154458 0.493054
313 1 0.0411919 0.482399 0.492821
11 1 0.43987 0.0690268 0.00061675
273 1 0.28079 0.0957924 0.495685
259 1 0.214666 0.025962 0.500772
519 1 0.249596 0.491057 0.00350591
2 1 0.0610679 0.0632465 0.00354521
301 1 0.15177 0.345094 0.49399
281 1 0.0289096 0.21925 0.501147
270 1 0.211731 0.158411 0.492607
18 1 0.191649 0.188294 0.00242526
302 1 0.2129 0.405958 0.497389
285 1 0.148552 0.214339 0.493293
58 1 0.441173 0.43541 0.00442954
17 1 0.121705 0.127638 0.00629865
5 1 0.188395 0.0674652 0.00752657
265 1 0.0279688 0.0957367 0.483948
30 1 0.072027 0.305422 0.00228182
310 1 0.463933 0.409238 0.500816
317 1 0.284996 0.466809 0.495601
319 1 0.402069 0.480294 0.49727
14 1 0.0652961 0.190367 0.0017793
277 1 0.402612 0.0979121 0.499019
29 1 -0.00141927 0.244879 0.00422148
25 1 0.377188 0.136484 0.00600098
385 1 0.114396 0.0156442 0.745064
263 1 0.464995 0.0380752 0.503034
490 1 0.121039 0.382614 0.880424
502 1 0.492131 0.383574 0.865762
326 1 0.284297 0.0287238 0.69005
453 1 0.368142 0.0041117 0.873629
391 1 0.479967 0.0116025 0.751061
264 1 0.410327 0.0344055 0.562252
384 1 0.484187 0.451118 0.691186
510 1 0.371528 0.438365 0.934381
267 1 0.098895 0.0957097 0.564166
268 1 0.0315894 0.150225 0.550784
509 1 0.292875 0.441016 0.872362
449 1 0.121016 0.00483101 0.875843
271 1 0.227077 0.0876967 0.554712
272 1 0.161676 0.150844 0.559076
390 1 0.296149 0.0135493 0.815794
13 1 1.82343e-05 0.13277 0.999268
275 1 0.351497 0.0902368 0.570617
276 1 0.287547 0.148759 0.551419
508 1 0.242126 0.435085 0.943617
324 1 0.170759 0.0228917 0.684421
279 1 0.473664 0.0904006 0.570708
280 1 0.401626 0.159004 0.564121
507 1 0.184229 0.4483 0.879619
506 1 0.1227 0.439876 0.944736
283 1 0.0983635 0.208593 0.562656
284 1 0.0323152 0.275395 0.566433
505 1 0.0618546 0.44159 0.877749
504 1 0.432618 0.383538 0.946573
287 1 0.233452 0.209523 0.561076
288 1 0.155614 0.26562 0.564946
511 1 0.424332 0.445858 0.869637
386 1 0.0586208 0.0147128 0.808982
291 1 0.338943 0.216574 0.565915
292 1 0.276728 0.277206 0.564373
389 1 0.349745 0.0133845 0.756924
1527 1 0.00858404 0.315004 0.943916
295 1 0.468165 0.210831 0.556026
296 1 0.411779 0.268211 0.56154
501 1 0.428785 0.320541 0.876725
260 1 0.173787 0.0216534 0.569598
299 1 0.100027 0.335666 0.559797
300 1 0.0392712 0.405191 0.560047
500 1 0.311899 0.376969 0.936069
499 1 0.371544 0.310353 0.938652
303 1 0.216429 0.336448 0.563784
304 1 0.157009 0.398583 0.555956
498 1 0.371037 0.379818 0.880984
497 1 0.309254 0.319789 0.875224
307 1 0.346154 0.338761 0.553587
308 1 0.283865 0.4028 0.558668
496 1 0.186908 0.373288 0.941431
1495 1 0.000907449 0.0657358 0.931283
311 1 0.469306 0.343886 0.560823
312 1 0.4079 0.398587 0.56093
452 1 0.178394 0.00826763 0.944554
314 1 0.0978294 0.465099 0.558002
495 1 0.252738 0.314036 0.935307
316 1 0.223599 0.462617 0.552771
323 1 0.229892 0.0205912 0.62967
318 1 0.345052 0.46274 0.560208
494 1 0.237429 0.380807 0.880634
438 1 0.49018 0.385016 0.745772
375 1 0.475091 0.325775 0.688426
42 1 0.440042 0.306578 0.994477
513 1 0.00219782 0.49511 0.999755
257 1 0.0958283 0.0209701 0.501194
456 1 0.433956 0.00355035 0.939841
1511 1 0.00207024 0.194545 0.932753
392 1 0.431492 0.0159021 0.814715
258 1 0.0399416 0.0253548 0.55592
329 1 0.0345021 0.0885788 0.612156
330 1 0.0997764 0.150806 0.626047
331 1 0.0972019 0.0846651 0.682853
332 1 0.0401858 0.146292 0.683064
333 1 0.174691 0.0817586 0.619238
334 1 0.225184 0.154095 0.62845
335 1 0.226842 0.0886829 0.689165
336 1 0.163445 0.143446 0.684874
337 1 0.286559 0.0886803 0.625519
338 1 0.348373 0.151489 0.623034
339 1 0.351591 0.0849872 0.689678
340 1 0.292282 0.144097 0.683464
341 1 0.412799 0.0726708 0.636089
359 1 0.47851 0.202726 0.691347
8 1 0.303556 0.0650347 0.996259
344 1 0.412686 0.144045 0.684962
345 1 0.0387026 0.217353 0.628005
346 1 0.100299 0.271217 0.62928
347 1 0.106085 0.210153 0.6973
348 1 0.0467458 0.267014 0.695588
349 1 0.161097 0.212183 0.636378
350 1 0.221331 0.269747 0.623523
351 1 0.227485 0.212507 0.69139
352 1 0.162462 0.272894 0.688429
353 1 0.285308 0.213708 0.625267
354 1 0.346325 0.278311 0.617739
355 1 0.354066 0.207843 0.684771
356 1 0.288357 0.28404 0.686074
357 1 0.41207 0.207871 0.629263
261 1 0.345954 0.0286629 0.499607
374 1 0.469483 0.403197 0.623393
360 1 0.414727 0.266845 0.683932
361 1 0.0406881 0.337442 0.630596
362 1 0.106313 0.394046 0.621413
363 1 0.099942 0.330996 0.689435
364 1 0.0497484 0.397737 0.68287
365 1 0.162369 0.334475 0.622666
366 1 0.223036 0.401816 0.618437
367 1 0.228022 0.339805 0.678815
368 1 0.161971 0.39065 0.689527
369 1 0.284851 0.341287 0.616112
370 1 0.349458 0.400896 0.61997
371 1 0.360766 0.327185 0.684596
372 1 0.299715 0.385114 0.684481
373 1 0.414379 0.334049 0.619579
262 1 0.287572 0.0273292 0.558031
342 1 0.479206 0.144971 0.634138
376 1 0.412196 0.386946 0.682549
377 1 0.0466409 0.458921 0.626156
378 1 0.113087 0.455841 0.677747
379 1 0.164521 0.462674 0.608999
380 1 0.228111 0.453463 0.685508
381 1 0.287764 0.456943 0.625082
382 1 0.361894 0.453959 0.686821
383 1 0.409455 0.462323 0.621108
325 1 0.344517 0.0152165 0.642526
485 1 0.432291 0.187964 0.869063
358 1 0.476814 0.275513 0.621733
451 1 0.235061 0.0116163 0.875936
484 1 0.314641 0.247531 0.930553
322 1 0.0463822 0.0217094 0.687555
966 1 0.313138 0.497374 0.939433
488 1 0.432931 0.248554 0.933879
423 1 0.49391 0.191295 0.810096
393 1 0.0459698 0.0844232 0.750888
394 1 0.116211 0.147839 0.750457
395 1 0.117803 0.0763672 0.803739
396 1 0.0525546 0.131644 0.817368
397 1 0.171302 0.0807046 0.742985
398 1 0.237777 0.146475 0.750222
399 1 0.237817 0.0766857 0.82005
400 1 0.180562 0.135394 0.806903
401 1 0.295366 0.0819549 0.749228
402 1 0.361971 0.143371 0.750345
403 1 0.355646 0.0702097 0.814717
404 1 0.301784 0.136469 0.812751
405 1 0.412473 0.0774017 0.750522
489 1 0.053667 0.318548 0.869656
321 1 0.101706 0.0242562 0.630402
408 1 0.430156 0.140699 0.808055
409 1 0.053247 0.198412 0.757037
410 1 0.111967 0.274599 0.754377
411 1 0.117443 0.194568 0.820894
412 1 0.0584282 0.262408 0.813741
413 1 0.172752 0.207582 0.749789
414 1 0.232363 0.270266 0.749349
415 1 0.234594 0.205702 0.807493
416 1 0.176127 0.267327 0.811727
417 1 0.295269 0.211177 0.739154
418 1 0.358902 0.264973 0.751856
419 1 0.365251 0.194939 0.817686
420 1 0.304894 0.255719 0.812473
421 1 0.422221 0.210262 0.756316
294 1 0.464554 0.276848 0.501606
516 1 0.12082 0.497506 0.998071
424 1 0.425363 0.264599 0.818917
425 1 0.0488805 0.330782 0.747619
426 1 0.107639 0.383279 0.756827
427 1 0.114736 0.326973 0.821624
428 1 0.0522796 0.382443 0.815888
429 1 0.168984 0.33371 0.752884
430 1 0.237959 0.390211 0.746014
431 1 0.241894 0.33391 0.813608
432 1 0.179414 0.391906 0.812519
433 1 0.298394 0.323797 0.756013
434 1 0.362623 0.388887 0.749442
435 1 0.363575 0.320006 0.809015
436 1 0.301524 0.385285 0.813217
437 1 0.423067 0.321039 0.747795
503 1 0.49637 0.326156 0.932435
483 1 0.370604 0.191019 0.924701
440 1 0.424067 0.382508 0.814538
441 1 0.0558055 0.45036 0.739091
442 1 0.112839 0.444368 0.809242
443 1 0.160616 0.451685 0.744343
444 1 0.242188 0.442819 0.800589
445 1 0.299821 0.452035 0.739236
446 1 0.359099 0.445065 0.812362
447 1 0.427097 0.443012 0.742934
26 1 0.441612 0.192132 0.995084
512 1 0.496503 0.435714 0.934655
320 1 0.464266 0.461792 0.561567
10 1 0.374637 0.000831518 0.995458
491 1 0.121023 0.315473 0.934025
422 1 0.486219 0.264083 0.74739
493 1 0.184523 0.318953 0.875667
482 1 0.367148 0.258085 0.870716
286 1 0.211686 0.277645 0.504529
457 1 0.0674243 0.0712147 0.87063
458 1 0.12011 0.126868 0.876058
459 1 0.117887 0.064772 0.938386
460 1 0.0633381 0.12969 0.941292
461 1 0.176276 0.0673357 0.88116
462 1 0.23362 0.134621 0.872175
463 1 0.240342 0.0666716 0.938255
464 1 0.185219 0.126129 0.937977
465 1 0.305586 0.0672665 0.883386
466 1 0.365156 0.122853 0.878822
467 1 0.378224 0.0657282 0.940171
468 1 0.309173 0.130982 0.943034
469 1 0.426506 0.0674192 0.876293
387 1 0.227282 0.0151602 0.750453
492 1 0.0617189 0.375914 0.940853
472 1 0.439847 0.131058 0.938406
473 1 0.0578323 0.197418 0.873722
474 1 0.124556 0.257919 0.87622
475 1 0.12258 0.192428 0.934043
476 1 0.0668866 0.254781 0.934186
477 1 0.179544 0.197073 0.881311
478 1 0.243122 0.25647 0.871284
479 1 0.241353 0.182793 0.937501
480 1 0.191479 0.258789 0.938132
481 1 0.296701 0.191196 0.881169
327 1 0.475119 0.0273855 0.628064
54 1 0.322306 0.438877 0.999515
407 1 0.489442 0.0771958 0.809814
968 1 0.429727 0.493181 0.937052
343 1 0.477376 0.0773021 0.693944
439 1 0.487236 0.322655 0.81171
328 1 0.410467 0.0185955 0.699453
455 1 0.496243 0.0131603 0.870062
38 1 0.314854 0.310505 0.995366
406 1 0.4832 0.135542 0.749259
470 1 0.499758 0.137962 0.882056
486 1 0.490657 0.266339 0.876209
450 1 0.0628782 0.00365549 0.940312
388 1 0.17495 0.0150785 0.814104
522 1 0.378876 0.49722 0.997287
46 1 0.0612495 0.43421 1.00014
448 1 0.493236 0.447586 0.813549
53 1 0.254358 0.372343 0.995993
7 1 0.243024 0.00451464 1.0009
33 1 0.132215 0.252898 0.997913
309 1 0.404232 0.343701 0.502263
41 1 0.378327 0.245453 0.991719
269 1 0.161062 0.0890625 0.503353
306 1 0.345769 0.406143 0.500278
282 1 0.0859525 0.284065 0.502918
518 1 0.134926 0.558539 0.0532749
521 1 0.249959 0.556594 0.0568138
527 1 0.0716368 0.61447 0.0597819
531 1 0.194022 0.632756 0.0686493
532 1 0.127985 0.676556 0.0572793
536 1 0.256127 0.687022 0.0600471
543 1 0.0636815 0.743582 0.0647602
547 1 0.185957 0.739866 0.0613322
548 1 0.1266 0.802859 0.0642235
552 1 0.25445 0.803406 0.0611273
559 1 0.0688878 0.871826 0.0598605
563 1 0.188986 0.866646 0.0619929
564 1 0.131301 0.936688 0.0643374
568 1 0.257505 0.943509 0.0651627
577 1 0.0704394 0.542817 0.119446
579 1 0.205945 0.55391 0.123214
580 1 0.129329 0.549728 0.186709
582 1 0.261968 0.552555 0.188835
586 1 0.0695313 0.675976 0.122213
587 1 0.0730294 0.611148 0.194115
589 1 0.128414 0.616705 0.12465
590 1 0.192112 0.68334 0.129415
591 1 0.193133 0.621897 0.186477
592 1 0.131144 0.680524 0.189658
593 1 0.255119 0.620041 0.13112
596 1 0.253664 0.680585 0.182967
602 1 0.0660659 0.798588 0.121372
603 1 0.0661997 0.732833 0.182062
605 1 0.125361 0.731933 0.118026
606 1 0.197849 0.801256 0.115661
607 1 0.190542 0.747017 0.183113
608 1 0.12214 0.792415 0.184714
609 1 0.256274 0.740614 0.122249
612 1 0.257661 0.80604 0.181896
618 1 0.0702801 0.925073 0.125308
619 1 0.0691142 0.857437 0.181064
621 1 0.137055 0.856824 0.12453
622 1 0.199056 0.936756 0.120768
623 1 0.201466 0.860705 0.18225
624 1 0.14255 0.920218 0.180988
625 1 0.255903 0.874857 0.115241
628 1 0.271857 0.922576 0.18274
641 1 0.0769277 0.548894 0.254657
643 1 0.197219 0.55533 0.24325
644 1 0.149884 0.550067 0.310323
646 1 0.266532 0.552683 0.311799
650 1 0.0750198 0.675955 0.251265
651 1 0.0771854 0.607595 0.310139
653 1 0.133674 0.616499 0.253507
654 1 0.201016 0.685736 0.238894
655 1 0.205995 0.614276 0.306517
656 1 0.145933 0.675927 0.310475
657 1 0.265905 0.614362 0.24602
660 1 0.267632 0.667262 0.313024
666 1 0.0760463 0.793645 0.251126
667 1 0.0832449 0.734235 0.311687
669 1 0.137072 0.735748 0.252464
670 1 0.195017 0.802715 0.246851
671 1 0.205271 0.735071 0.308433
672 1 0.146557 0.798215 0.312929
673 1 0.267349 0.730773 0.255078
676 1 0.269018 0.798716 0.31227
682 1 0.0847424 0.924517 0.248348
683 1 0.0855665 0.857153 0.309317
685 1 0.139563 0.8605 0.243675
686 1 0.202618 0.920712 0.243385
687 1 0.212705 0.861482 0.314499
688 1 0.148036 0.92352 0.312555
689 1 0.263591 0.85791 0.246884
692 1 0.267162 0.916309 0.306242
705 1 0.0863486 0.541269 0.363713
707 1 0.209259 0.536481 0.368448
708 1 0.156274 0.541307 0.431306
710 1 0.271762 0.534905 0.434153
714 1 0.0793109 0.677942 0.374858
715 1 0.096175 0.600372 0.430953
716 1 0.0271704 0.668134 0.443767
717 1 0.151591 0.601783 0.371672
718 1 0.211204 0.667302 0.374979
719 1 0.216807 0.600664 0.431366
720 1 0.154053 0.65813 0.436217
721 1 0.265765 0.604483 0.374734
724 1 0.275949 0.657298 0.437261
730 1 0.0916324 0.794465 0.367345
731 1 0.0852674 0.727032 0.437696
733 1 0.150571 0.72641 0.372632
734 1 0.216413 0.785357 0.376157
735 1 0.21785 0.71592 0.439971
736 1 0.158148 0.778289 0.438256
737 1 0.279046 0.730077 0.369117
740 1 0.2824 0.780253 0.436976
746 1 0.0858839 0.918823 0.379223
747 1 0.0849741 0.845464 0.430992
748 1 0.030062 0.908514 0.435816
749 1 0.154652 0.862161 0.372877
750 1 0.218725 0.913246 0.377717
751 1 0.216362 0.846933 0.437362
752 1 0.154098 0.910663 0.443714
753 1 0.276919 0.847756 0.381842
756 1 0.279632 0.901745 0.437265
762 1 0.0935282 0.965276 0.439945
732 1 0.0250951 0.791894 0.444051
706 1 0.0279725 0.537854 0.416687
729 1 0.0162455 0.735682 0.36822
745 1 0.0187404 0.851781 0.378482
764 1 0.220394 0.959399 0.442782
761 1 0.0280668 0.97608 0.375983
763 1 0.154159 0.974382 0.381417
765 1 0.27567 0.981721 0.36867
713 1 0.0306767 0.607503 0.375176
698 1 0.0835034 0.975366 0.314695
535 1 0.312762 0.621188 0.0636643
642 1 0.0215277 0.545972 0.312917
668 1 0.0224743 0.796618 0.311468
635 1 0.128897 0.996918 0.128258
665 1 0.0140289 0.732229 0.24267
700 1 0.214437 0.979579 0.308046
684 1 0.0233287 0.915797 0.309487
626 1 0.319226 0.931597 0.12155
699 1 0.141896 0.979158 0.255357
652 1 0.0209964 0.672332 0.311487
594 1 0.318776 0.68129 0.124506
633 1 0.00645478 0.997581 0.12667
697 1 0.0156162 0.980274 0.244306
575 1 0.316552 0.993392 0.0452448
781 1 0.159328 0.591803 0.495225
617 1 0.00404537 0.870222 0.124819
825 1 0.0323994 0.969589 0.498238
620 1 0.0188944 0.919061 0.188248
585 1 0.0114366 0.605578 0.129699
769 1 0.099252 0.539065 0.49942
601 1 0.0104256 0.734919 0.120218
639 1 0.387019 0.994483 0.113499
637 1 0.26042 0.992544 0.133532
777 1 0.0366558 0.584639 0.48886
798 1 0.223493 0.787548 0.498153
546 1 0.187155 0.809097 0.00281137
578 1 0.0137249 0.545079 0.198075
636 1 0.189423 0.987852 0.188822
551 1 0.323201 0.740142 0.0611948
604 1 0.0103788 0.804152 0.179143
810 1 0.0923193 0.89742 0.4926
681 1 0.0217754 0.858055 0.251888
638 1 0.333122 0.9872 0.179757
786 1 0.337698 0.65345 0.49873
727 1 0.461361 0.602243 0.442911
515 1 0.004604 0.560908 0.0635711
809 1 0.0309921 0.846088 0.499184
701 1 0.274158 0.974335 0.250716
541 1 4.3644e-05 0.750977 0.00804102
726 1 0.458004 0.664826 0.375547
649 1 0.0100876 0.605091 0.249098
595 1 0.321344 0.618456 0.178342
634 1 0.0714065 0.987806 0.187457
738 1 0.33894 0.78866 0.373443
562 1 0.186502 0.934354 0.00484005
599 1 0.441885 0.616535 0.188359
757 1 0.3957 0.858751 0.379948
542 1 0.0619232 0.811042 0.0111853
558 1 0.06653 0.939512 0.00158915
556 1 0.374263 0.803539 0.0550511
696 1 0.396955 0.915652 0.31395
744 1 0.410617 0.786163 0.443804
539 1 0.438271 0.617385 0.0630978
571 1 0.441025 0.870057 0.0573747
631 1 0.442114 0.868346 0.181461
567 1 0.317322 0.864312 0.0582293
648 1 0.395107 0.543543 0.311369
680 1 0.403733 0.792033 0.310674
629 1 0.379795 0.860074 0.122917
785 1 0.28305 0.593063 0.500644
661 1 0.385671 0.609755 0.245616
610 1 0.317017 0.797906 0.125185
597 1 0.384185 0.621994 0.123297
760 1 0.401898 0.910748 0.440901
679 1 0.469231 0.731203 0.320211
581 1 0.326371 0.558895 0.128941
611 1 0.315504 0.736365 0.190735
640 1 0.443618 0.985428 0.186994
755 1 0.344061 0.848415 0.440002
540 1 0.379788 0.67863 0.0591279
712 1 0.399101 0.542359 0.440998
663 1 0.452232 0.600081 0.306527
524 1 0.382767 0.55809 0.05835
678 1 0.454087 0.800073 0.24668
630 1 0.444836 0.929982 0.120758
615 1 0.444566 0.737644 0.187644
741 1 0.40555 0.72579 0.373132
613 1 0.381244 0.741898 0.128007
709 1 0.331912 0.532431 0.373759
693 1 0.389888 0.850018 0.243187
759 1 0.466559 0.846336 0.447221
722 1 0.335395 0.669616 0.37003
674 1 0.324598 0.79755 0.252605
627 1 0.324732 0.857308 0.179937
584 1 0.388675 0.548515 0.185869
711 1 0.457347 0.541711 0.371153
616 1 0.383734 0.799792 0.184225
583 1 0.451457 0.54958 0.12679
739 1 0.34266 0.722558 0.436022
695 1 0.452447 0.85751 0.313873
702 1 0.336441 0.982707 0.308145
572 1 0.380661 0.932445 0.0538495
659 1 0.331045 0.608997 0.315691
742 1 0.462325 0.792022 0.379031
675 1 0.340599 0.730423 0.314614
728 1 0.395052 0.662209 0.433885
758 1 0.45819 0.911953 0.380501
767 1 0.399342 0.970826 0.372097
703 1 0.397943 0.983688 0.256069
645 1 0.326223 0.55151 0.26073
704 1 0.458552 0.97674 0.315948
658 1 0.332588 0.672669 0.254572
723 1 0.337729 0.603411 0.432526
766 1 0.342587 0.967379 0.441983
677 1 0.388456 0.730736 0.250212
614 1 0.446619 0.792764 0.116569
725 1 0.393954 0.605555 0.3726
690 1 0.342233 0.923852 0.25318
555 1 0.444289 0.742198 0.0563787
754 1 0.335197 0.918126 0.372866
632 1 0.387568 0.92835 0.184684
647 1 0.44665 0.547931 0.244822
600 1 0.378899 0.678994 0.187495
691 1 0.330282 0.85788 0.309469
743 1 0.465196 0.720548 0.434739
662 1 0.456572 0.671882 0.249673
694 1 0.455016 0.91998 0.256064
768 1 0.463579 0.964816 0.446473
598 1 0.446977 0.681373 0.129166
664 1 0.401213 0.670906 0.30708
545 1 0.120607 0.746627 0.00143494
569 1 0.371945 0.874116 0.00295154
573 1 0.0603564 1.00056 0.0644403
773 1 0.341761 0.532282 0.500145
778 1 0.0960948 0.656908 0.494951
588 1 0.0116214 0.674257 0.18857
771 1 0.220655 0.533359 0.494203
794 1 0.0989069 0.785026 0.495472
528 1 0.00687419 0.675726 0.0528328
782 1 0.218118 0.655134 0.495549
557 1 0.000827942 0.878847 0.00757165
561 1 0.127848 0.870571 0.00556624
802 1 0.349754 0.781687 0.498427
829 1 0.284537 0.959941 0.499836
553 1 0.379948 0.742776 0.00166698
554 1 0.440463 0.809637 0.00163173
549 1 0.258719 0.748727 0.00175722
797 1 0.154638 0.713955 0.494068
2038 1 0.00605375 0.879371 0.881126
770 1 0.0291835 0.531773 0.556163
2048 1 0.000516723 0.941474 0.940957
772 1 0.16409 0.528771 0.554663
961 1 0.118576 0.504813 0.866198
774 1 0.28391 0.528006 0.564858
1024 1 0.495832 0.945301 0.939603
776 1 0.40874 0.523982 0.565204
1020 1 0.247258 0.935041 0.938108
1 1 0.00197002 1.00085 0.998635
779 1 0.100884 0.59172 0.558877
780 1 0.0367637 0.664591 0.558864
897 1 0.110328 0.511805 0.74269
1019 1 0.17876 0.943108 0.882767
783 1 0.223589 0.586429 0.555746
784 1 0.16814 0.648176 0.555129
1018 1 0.115843 0.931536 0.941632
1017 1 0.0637829 0.938268 0.872673
787 1 0.34557 0.582768 0.569715
788 1 0.286769 0.649891 0.560774
963 1 0.243817 0.512012 0.86869
854 1 0.477731 0.642614 0.625084
791 1 0.473783 0.590251 0.557475
792 1 0.418441 0.656079 0.560638
538 1 0.438261 0.68268 1.0004
1016 1 0.433038 0.884129 0.928386
795 1 0.0962015 0.722224 0.561791
796 1 0.0398257 0.786671 0.556548
903 1 0.485788 0.510916 0.754276
833 1 0.100346 0.523274 0.615571
799 1 0.223546 0.713895 0.563286
800 1 0.168739 0.775048 0.563108
835 1 0.229356 0.521846 0.623719
1013 1 0.431181 0.82201 0.871076
803 1 0.347646 0.710578 0.557409
804 1 0.291707 0.780298 0.557984
904 1 0.4257 0.499824 0.804677
1012 1 0.305255 0.869589 0.936025
807 1 0.482008 0.714738 0.572541
808 1 0.419699 0.775459 0.567801
965 1 0.363119 0.504013 0.865066
1011 1 0.370585 0.822504 0.935545
811 1 0.107473 0.841577 0.561081
812 1 0.0400134 0.905905 0.562628
837 1 0.354826 0.52298 0.630231
1010 1 0.366024 0.89068 0.874
815 1 0.228554 0.836772 0.565452
816 1 0.166514 0.903905 0.569754
814 1 0.220566 0.89812 0.50268
901 1 0.35156 0.518271 0.747544
819 1 0.354719 0.843662 0.566965
820 1 0.289027 0.903948 0.565109
1009 1 0.304452 0.813982 0.87141
964 1 0.186357 0.504678 0.941002
823 1 0.467825 0.84179 0.568545
824 1 0.410987 0.902445 0.578541
1008 1 0.179702 0.864207 0.939804
826 1 0.103149 0.966074 0.564439
999 1 0.49772 0.688064 0.930367
828 1 0.228617 0.959801 0.561812
1007 1 0.243226 0.812308 0.934598
830 1 0.352118 0.969494 0.563656
1006 1 0.230296 0.877289 0.882791
832 1 0.468188 0.964927 0.571398
454 1 0.308046 0.99518 0.943178
1014 1 0.495962 0.888306 0.876502
840 1 0.422482 0.511801 0.687281
902 1 0.294636 0.506247 0.804619
967 1 0.490376 0.506769 0.871645
1581 1 0.496862 0.87489 0.990891
570 1 0.439843 0.940593 0.995393
886 1 0.48136 0.898259 0.629728
841 1 0.0374354 0.588877 0.620037
842 1 0.105216 0.648759 0.620941
843 1 0.104396 0.579409 0.676579
844 1 0.0421063 0.636565 0.688214
845 1 0.167463 0.579587 0.615918
846 1 0.224889 0.643387 0.616435
847 1 0.232619 0.58234 0.682875
848 1 0.165879 0.632735 0.692769
849 1 0.285282 0.58347 0.623228
850 1 0.350193 0.646607 0.622211
851 1 0.357004 0.582011 0.680006
852 1 0.297275 0.636425 0.686782
853 1 0.411099 0.587997 0.62391
817 1 0.296544 0.845714 0.501996
813 1 0.164702 0.839106 0.502353
856 1 0.420751 0.641186 0.694315
857 1 0.0452588 0.710424 0.62792
858 1 0.0984752 0.779382 0.620631
859 1 0.107311 0.699969 0.685833
860 1 0.0508768 0.76408 0.69135
861 1 0.168266 0.711847 0.622968
862 1 0.228602 0.777412 0.625461
863 1 0.233122 0.695997 0.679139
864 1 0.152167 0.772599 0.687553
865 1 0.289659 0.71092 0.62178
866 1 0.344755 0.768425 0.628771
867 1 0.354384 0.703179 0.682281
868 1 0.293694 0.764941 0.687288
869 1 0.415039 0.707423 0.622312
900 1 0.173871 0.504506 0.810159
983 1 0.49203 0.560772 0.932046
872 1 0.415026 0.764607 0.68457
873 1 0.0375462 0.836011 0.623971
874 1 0.111111 0.902946 0.632302
875 1 0.0991425 0.834821 0.685373
876 1 0.0424784 0.902392 0.680504
877 1 0.159844 0.834067 0.627916
878 1 0.228132 0.892391 0.636885
879 1 0.235773 0.82836 0.694278
880 1 0.168992 0.896511 0.695406
881 1 0.288911 0.834086 0.633617
882 1 0.351147 0.90852 0.632419
883 1 0.350222 0.83029 0.692768
884 1 0.289246 0.886761 0.703361
885 1 0.41326 0.828408 0.631859
982 1 0.494991 0.625144 0.876577
996 1 0.30986 0.753816 0.938399
888 1 0.416527 0.884609 0.695711
889 1 0.0454744 0.967601 0.620815
890 1 0.108077 0.954174 0.696837
891 1 0.167834 0.96113 0.635712
892 1 0.236774 0.959004 0.697631
893 1 0.286934 0.951049 0.633819
894 1 0.350433 0.950945 0.69883
895 1 0.41619 0.964014 0.63143
526 1 0.061918 0.671938 0.997032
836 1 0.163693 0.521633 0.679706
1004 1 0.0586576 0.863259 0.942093