ITEM: TIMESTEP
100000
ITEM: NUMBER OF ATOMS
2048
ITEM: BOX BOUNDS xy xz yz pp pp pp
-7.4690079109286078e-01 1.1950412657485773e+01 0.0000000000000000e+00
0.0000000000000000e+00 1.2697313448578633e+01 -7.4690079109286078e-01
0.0000000000000000e+00 1.1950412657485773e+01 7.4690079109286078e-01
ITEM: ATOMS id type xs ys zs
6 1 0.196247 0.119137 0.0666935
9 1 0.251804 0.0555596 0.05749
15 1 0.0633209 0.126622 0.0541244
31 1 0.0697634 0.255817 0.0572877
35 1 0.189956 0.260921 0.061019
36 1 0.131272 0.323987 0.0550081
47 1 0.061141 0.366822 0.0682166
51 1 0.191131 0.37904 0.0727014
52 1 0.11862 0.431195 0.0639144
65 1 0.0790399 0.047535 0.12672
67 1 0.197863 0.0551605 0.119815
68 1 0.14157 0.0472868 0.179959
70 1 0.265371 0.061395 0.171815
74 1 0.0718444 0.175544 0.123394
75 1 0.0732978 0.11724 0.179452
77 1 0.126855 0.112456 0.121101
78 1 0.192303 0.183827 0.123565
79 1 0.193156 0.122131 0.181449
80 1 0.134197 0.176418 0.184447
81 1 0.262011 0.134402 0.119853
84 1 0.253633 0.182837 0.185527
90 1 0.0713975 0.299845 0.121994
91 1 0.070339 0.227545 0.189229
93 1 0.126533 0.238049 0.122094
94 1 0.197926 0.311484 0.126451
95 1 0.19558 0.242366 0.178936
96 1 0.13286 0.302689 0.181423
97 1 0.259595 0.246447 0.120514
106 1 0.0637225 0.420177 0.123611
107 1 0.0723625 0.356973 0.177141
109 1 0.1337 0.368197 0.123305
111 1 0.194993 0.367195 0.191467
112 1 0.12011 0.429473 0.186466
113 1 0.237281 0.440537 0.0662133
115 1 0.257752 0.350113 0.247589
116 1 0.178907 0.437214 0.131596
129 1 0.0685091 0.0491466 0.254795
131 1 0.203854 0.0427139 0.249059
132 1 0.152282 0.0446188 0.309284
133 1 0.266891 0.0428873 0.308753
138 1 0.069919 0.155807 0.252749
139 1 0.0942961 0.102566 0.317515
141 1 0.1369 0.101143 0.233667
142 1 0.20044 0.174194 0.245006
143 1 0.213561 0.106177 0.301618
144 1 0.15291 0.16312 0.31004
145 1 0.271889 0.125044 0.246909
148 1 0.265916 0.169125 0.313285
154 1 0.0777351 0.292686 0.233809
155 1 0.148019 0.23233 0.371758
157 1 0.13651 0.235741 0.241363
158 1 0.199167 0.291503 0.240403
159 1 0.205928 0.232451 0.300622
160 1 0.131992 0.282002 0.304809
161 1 0.26798 0.221261 0.248776
164 1 0.267022 0.288247 0.302451
171 1 0.0620158 0.432352 0.253121
173 1 0.133653 0.351479 0.24372
174 1 0.261597 0.360913 0.132702
175 1 0.20131 0.352143 0.305818
176 1 0.145279 0.41928 0.314082
177 1 0.260177 0.419179 0.192076
180 1 0.264102 0.403972 0.323715
193 1 0.0893272 0.046082 0.388747
195 1 0.214025 0.0995253 0.433248
196 1 0.159708 0.0289588 0.441639
202 1 0.154354 0.164723 0.42545
205 1 0.153081 0.0974996 0.376095
206 1 0.2748 0.235639 0.376475
208 1 0.211634 0.170274 0.375232
209 1 0.271451 0.109501 0.368856
212 1 0.277105 0.149995 0.4429
218 1 0.0819446 0.286532 0.374481
219 1 0.0915863 0.220199 0.429453
221 1 0.0925167 0.167822 0.367
222 1 0.212131 0.291932 0.360288
223 1 0.210361 0.226533 0.433876
224 1 0.142737 0.284673 0.436066
228 1 0.282689 0.286068 0.438743
234 1 0.0908104 0.415874 0.377121
235 1 0.0904887 0.350568 0.436262
237 1 0.151776 0.336799 0.375748
238 1 0.204259 0.416135 0.371654
239 1 0.203128 0.353671 0.432149
240 1 0.148854 0.425904 0.434788
241 1 0.271566 0.345667 0.379392
765 1 0.272798 0.0434362 0.435182
233 1 0.0859233 0.351557 0.322439
187 1 0.198396 0.421591 0.246142
104 1 0.265403 0.290438 0.188639
153 1 0.0823529 0.219355 0.297291
306 1 0.269451 0.410975 0.442473
18 1 0.253114 0.204586 0.0507744
23 1 0.314134 0.12316 0.0634153
19 1 0.126438 0.0597593 0.0663588
763 1 0.218669 0.0457698 0.36889
269 1 0.0909823 0.115332 0.441546
40 1 0.248891 0.314156 0.0573344
480 1 0.142165 0.197654 0.0590996
194 1 0.0261432 0.0367854 0.432385
708 1 0.0901636 0.483552 0.443955
127 1 0.307788 0.380967 0.0728435
204 1 0.028072 0.166586 0.440527
220 1 0.0274049 0.281556 0.437293
236 1 0.0312429 0.408466 0.437618
286 1 0.22114 0.28816 0.495846
203 1 0.036188 0.110471 0.376534
58 1 0.438235 0.435693 0.00156707
128 1 0.312189 0.426775 0.1311
12 1 0.362994 0.122285 -0.000490956
37 1 0.319228 0.246921 0.0543874
251 1 0.14191 0.485333 0.37438
1027 1 0.496335 0.0643453 0.0640956
189 1 0.266602 0.470424 0.260648
252 1 0.211865 0.468946 0.429752
217 1 0.0291644 0.222622 0.363457
253 1 0.268841 0.475277 0.375652
69 1 0.328106 0.0576457 0.118301
66 1 0.00807102 0.0493233 0.179378
137 1 0.0103748 0.102035 0.240469
121 1 0.0169951 0.48547 0.136366
172 1 0.0250959 0.416052 0.320039
583 1 0.375927 0.482609 0.123555
169 1 0.0163065 0.351309 0.242059
108 1 0.0118915 0.417636 0.185592
643 1 0.144614 0.481881 0.250558
178 1 0.3277 0.415915 0.254964
249 1 0.0152681 0.468256 0.375502
573 1 0.0604515 0.00271384 0.0565242
1271 1 0.0264384 0.354588 0.376462
637 1 0.263326 -0.00161733 0.123249
63 1 0.31152 0.495675 0.0612217
124 1 0.207169 0.486009 0.194823
186 1 0.0817018 0.479588 0.312814
76 1 0.00979194 0.171692 0.1771
281 1 0.0211342 0.22823 0.501105
130 1 0.0220947 0.0523594 0.321252
297 1 0.0257247 0.351094 0.495747
227 1 0.33517 0.215907 0.437479
146 1 0.333072 0.175464 0.25731
100 1 0.321213 0.230776 0.186022
163 1 0.338944 0.299903 0.261383
44 1 0.434413 0.313253 0.00499284
87 1 0.494978 0.117022 0.120909
250 1 0.0242033 0.478972 0.493796
188 1 0.208263 0.476756 0.316516
640 1 0.452869 7.84844e-05 0.192471
156 1 0.0344003 0.289863 0.301973
39 1 0.319161 0.306761 0.114027
46 1 0.0572597 0.424066 0.00738316
54 1 0.374717 0.434679 0.053393
232 1 0.329197 0.234369 0.312004
72 1 0.324423 0.0431823 0.258643
214 1 0.461937 0.168155 0.382264
55 1 0.306771 0.327333 0.00741303
185 1 0.0170986 0.497361 0.263336
73 1 0.00569269 0.126853 0.112503
711 1 0.454152 0.490018 0.317267
261 1 0.339183 0.0409468 0.492039
140 1 0.0204532 0.162999 0.310537
83 1 0.326867 0.116021 0.177806
89 1 0.0028474 0.2475 0.113191
92 1 0.00389545 0.294254 0.176489
1191 1 0.01729 0.231573 0.246722
61 1 0.0525184 0.485837 0.0607576
162 1 0.392371 0.34728 0.378152
282 1 0.0873114 0.272481 0.495029
215 1 0.461329 0.100414 0.440767
704 1 0.460262 0.000519837 0.314373
242 1 0.333148 0.419057 0.372634
210 1 0.390201 0.230873 0.384079
285 1 0.155761 0.224016 0.4963
167 1 0.454888 0.233218 0.319741
1040 1 0.499417 0.191606 0.0623678
122 1 0.0652557 0.493247 0.200766
645 1 0.329688 0.47131 0.195134
299 1 0.0978001 0.417313 0.494776
147 1 0.326465 0.110671 0.310356
166 1 0.396447 0.359899 0.260806
190 1 0.336135 0.481013 0.324209
199 1 0.457702 0.0490757 0.373602
231 1 0.471363 0.223563 0.440973
16 1 0.0101213 0.190177 0.0645247
575 1 0.391434 0.059823 0.0576269
245 1 0.375168 0.287184 0.447599
243 1 0.333314 0.358882 0.432308
1209 1 0.462511 0.479306 0.186272
182 1 0.450158 0.418447 0.246908
255 1 0.326114 0.46795 0.447733
82 1 0.324558 0.183653 0.118474
56 1 0.322299 0.356581 0.200625
181 1 0.336012 0.355386 0.314596
118 1 0.437298 0.424581 0.129876
98 1 0.436809 0.253524 0.0681448
229 1 0.394223 0.286408 0.326056
213 1 0.396464 0.111565 0.375468
192 1 0.399883 0.473188 0.378026
117 1 0.377198 0.369243 0.121779
226 1 0.331315 0.291252 0.37166
191 1 0.397976 0.482818 0.252363
28 1 0.390747 0.116216 0.119704
99 1 0.384072 0.234144 0.236898
179 1 0.454852 0.348998 0.325547
119 1 0.450452 0.361728 0.188291
1273 1 0.468988 0.4666 0.444534
71 1 0.388685 0.0541283 0.180881
225 1 0.338248 0.169324 0.373155
197 1 0.331775 0.0541679 0.377297
59 1 0.444883 0.373247 0.0581405
27 1 0.436071 0.125734 0.0566713
136 1 0.39282 0.0418773 0.302627
230 1 0.457569 0.288771 0.390918
43 1 0.380294 0.190285 0.0561577
57 1 0.374534 0.305054 0.0561997
200 1 0.405251 0.0424688 0.436771
319 1 0.410208 0.410908 0.439656
168 1 0.459228 0.419043 0.378004
266 1 0.0898807 0.164394 0.499639
150 1 0.45131 0.17064 0.259293
103 1 0.459121 0.257139 0.190347
86 1 0.451827 0.183238 0.12889
211 1 0.343491 0.107921 0.436671
114 1 0.381799 0.307159 0.176071
85 1 0.444895 0.054365 0.121235
247 1 0.461964 0.34778 0.444894
135 1 0.460804 0.0571854 0.250377
101 1 0.384373 0.240514 0.126129
216 1 0.405257 0.170278 0.442996
152 1 0.388888 0.113472 0.242455
102 1 0.441142 0.311035 0.121026
88 1 0.385616 0.176874 0.176391
1116 1 0.456641 0.298486 0.262557
165 1 0.394543 0.175919 0.317148
120 1 0.388355 0.412701 0.192575
149 1 0.450361 0.121171 0.195503
184 1 0.406372 0.417096 0.315185
151 1 0.460452 0.109327 0.312982
64 1 0.429306 0.493702 0.0666964
125 1 0.260256 0.492216 0.127947
207 1 0.155126 0.101466 0.49671
257 1 0.0897103 0.0448075 0.494948
3 1 0.00569559 0.0596087 0.0627796
274 1 0.345785 0.156816 0.501936
123 1 0.109094 0.487113 0.126982
1072 1 0.498857 0.442999 0.0646706
294 1 0.475613 0.279262 0.499511
500 1 0.247746 0.387264 0.0037427
302 1 0.160318 0.473418 0.49492
289 1 0.274423 0.214581 0.494884
60 1 0.382901 0.375073 0.00309187
320 1 0.402493 0.464686 0.497782
4 1 0.121666 0.00324172 0.00227485
20 1 0.0624273 0.198538 0.00723543
49 1 0.12721 0.384269 0.00251266
17 1 0.240884 0.124538 0.00292239
26 1 0.440078 0.194953 0.00805685
270 1 0.217746 0.153298 0.494953
11 1 0.491668 0.125063 0.0023956
516 1 0.11543 0.49071 0.00199258
1037 1 0.436598 0.124789 0.940584
399 1 0.249733 0.00998614 0.870222
263 1 0.467424 0.0356508 0.503082
378 1 0.10044 0.450492 0.692344
260 1 0.160278 0.0352871 0.549719
452 1 0.183042 0.0134388 0.929419
262 1 0.292545 0.0280116 0.565096
389 1 0.291438 0.189893 0.755645
359 1 0.47938 0.198154 0.688228
264 1 0.41004 0.0281899 0.55853
267 1 0.0969244 0.0959654 0.56299
390 1 0.288057 0.0146784 0.7992
510 1 0.440542 0.459392 0.884586
385 1 0.10378 0.0314635 0.742906
271 1 0.221389 0.0979664 0.562323
272 1 0.159019 0.148605 0.561277
509 1 0.303043 0.446439 0.880905
508 1 0.37007 0.443864 0.948853
275 1 0.344099 0.0997742 0.570297
276 1 0.286282 0.207014 0.625673
5 1 0.176933 0.0596693 0.990247
248 1 0.483606 0.409095 0.504676
469 1 0.496217 0.0191913 0.882102
280 1 0.345996 0.214082 0.574049
507 1 0.17329 0.455447 0.874544
506 1 0.1178 0.446151 0.931923
283 1 0.10407 0.209515 0.565002
284 1 0.0276779 0.277472 0.560941
505 1 0.0541395 0.451314 0.875576
504 1 0.433937 0.377653 0.942394
287 1 0.216048 0.21256 0.552724
288 1 0.16149 0.27929 0.55999
511 1 0.423448 0.443589 0.761082
21 1 0.25362 0.187938 0.930802
291 1 0.286016 0.158605 0.557668
292 1 0.283159 0.281722 0.573578
314 1 0.105834 0.478667 0.551409
491 1 0.116425 0.320122 0.945211
479 1 0.181002 0.19275 0.996595
34 1 0.1865 0.32736 0.997057
501 1 0.369316 0.383151 0.879438
322 1 0.0498982 0.0218467 0.678511
295 1 0.424506 0.273087 0.57707
300 1 0.0380753 0.411151 0.552288
388 1 0.173024 0.0136432 0.807842
499 1 0.361047 0.251273 0.871184
303 1 0.219724 0.341185 0.559308
304 1 0.163572 0.395886 0.557508
498 1 0.376666 0.445936 0.826931
497 1 0.243743 0.450441 0.934376
840 1 0.480085 0.465977 0.564721
308 1 0.289781 0.392906 0.568647
496 1 0.182396 0.264128 0.937784
495 1 0.24038 0.330545 0.935037
325 1 0.348378 0.0310322 0.636068
312 1 0.412804 0.389786 0.571493
1398 1 0.0279567 0.341896 0.629783
1069 1 0.500113 0.315441 0.943842
494 1 0.241319 0.397808 0.873373
316 1 0.22562 0.466784 0.56734
957 1 0.365757 0.0201603 0.754119
774 1 0.357911 0.459932 0.575459
456 1 0.434974 0.00419839 0.947904
1513 1 0.496511 0.25601 0.886981
321 1 0.0898399 0.0269513 0.612424
375 1 0.48825 0.344092 0.683131
423 1 0.490856 0.190802 0.80068
487 1 0.432022 0.248566 0.932093
268 1 0.039223 0.160447 0.560598
1495 1 0.00275924 0.0629389 0.935181
789 1 0.41665 0.456685 0.649186
450 1 0.0555821 0.00125557 0.93833
329 1 0.0403816 0.086894 0.617814
330 1 0.102325 0.153629 0.625028
331 1 0.101907 0.0882484 0.678703
471 1 0.50034 0.079635 0.938342
333 1 0.164118 0.0939649 0.620851
334 1 0.219428 0.160837 0.617586
335 1 0.225937 0.0810245 0.690406
336 1 0.161393 0.143913 0.685582
337 1 0.276714 0.0822133 0.624755
338 1 0.339897 0.148544 0.626783
339 1 0.340075 0.0796776 0.694177
340 1 0.282544 0.148507 0.685758
449 1 0.12105 0.0114783 0.873471
311 1 0.488704 0.345174 0.564951
1464 1 0.0559543 0.39202 0.821197
344 1 0.364155 0.128215 0.754641
345 1 0.0335472 0.221221 0.617463
346 1 0.0960012 0.282804 0.606746
347 1 0.104924 0.212043 0.680225
348 1 0.0382234 0.258513 0.685751
349 1 0.165885 0.220941 0.627165
350 1 0.228369 0.2733 0.628029
351 1 0.162085 0.284475 0.679904
352 1 0.174815 0.381431 0.677616
353 1 0.167366 0.207071 0.743985
354 1 0.220781 0.205137 0.687705
355 1 0.415185 0.141769 0.687877
356 1 0.300147 0.268739 0.698875
357 1 0.341956 0.268065 0.634332
296 1 0.408383 0.156339 0.577873
386 1 0.0536614 0.0196818 0.811096
360 1 0.426932 0.270419 0.695577
387 1 0.224125 0.0259482 0.751616
362 1 0.0969281 0.344715 0.54929
363 1 0.107471 0.341689 0.695957
440 1 0.49141 0.449613 0.815164
365 1 0.16464 0.335454 0.613503
366 1 0.235619 0.394711 0.626925
367 1 0.237791 0.328229 0.687844
368 1 0.292125 0.452311 0.622622
369 1 0.28927 0.335262 0.632265
370 1 0.348694 0.332522 0.578805
371 1 0.354262 0.327451 0.689093
372 1 0.295076 0.39264 0.690236
373 1 0.409296 0.213652 0.638758
453 1 0.371752 0.00414668 0.883184
293 1 0.409877 0.0811514 0.624744
376 1 0.416324 0.330084 0.636562
377 1 0.0415583 0.454649 0.616942
328 1 0.420684 0.016875 0.695359
379 1 0.107474 0.402986 0.609623
380 1 0.229719 0.448865 0.686629
381 1 0.354063 0.397835 0.637138
382 1 0.353554 0.44948 0.698417
53 1 0.183432 0.392583 0.937383
258 1 0.0226788 0.0395693 0.554819
513 1 -0.00171824 0.495395 0.994663
834 1 0.0486465 0.452663 0.756938
485 1 0.425489 0.193759 0.869629
326 1 0.291309 0.0116947 0.702847
301 1 0.22681 0.404612 0.511968
490 1 0.118227 0.380479 0.885217
110 1 0.305144 0.446943 0.996098
317 1 0.293586 0.472024 0.516556
393 1 0.0392975 0.0851578 0.752349
394 1 0.106959 0.144307 0.747693
395 1 0.110368 0.0755857 0.810359
396 1 0.0547043 0.13815 0.820613
397 1 0.165788 0.0855908 0.748579
398 1 0.231754 0.0829479 0.805533
279 1 0.470359 0.0905608 0.563053
400 1 0.173902 0.134405 0.811813
401 1 0.287817 0.0914379 0.750795
402 1 0.351048 0.204887 0.697835
403 1 0.375015 0.0715364 0.818677
404 1 0.302758 0.133313 0.815601
405 1 0.429553 0.0776802 0.753347
486 1 0.429634 0.313404 0.88288
1 1 0.00111468 0.00641891 0.996365
408 1 0.426679 0.131415 0.814727
409 1 0.0525032 0.206139 0.753924
410 1 0.0643587 0.261026 0.81671
411 1 0.12032 0.204063 0.815175
38 1 0.3154 0.385128 0.939833
413 1 0.113188 0.265929 0.739036
414 1 0.232644 0.264003 0.739749
415 1 0.230865 0.197181 0.809541
416 1 0.181031 0.26474 0.809553
417 1 0.222552 0.145549 0.745735
418 1 0.363759 0.26727 0.757851
419 1 0.361332 0.195583 0.809839
420 1 0.301052 0.255829 0.810362
421 1 0.420144 0.196071 0.752936
341 1 0.470526 0.0194199 0.625894
493 1 0.188388 0.325728 0.874593
424 1 0.433917 0.262956 0.815689
425 1 0.0568358 0.323002 0.75255
426 1 0.0982702 0.389419 0.755458
427 1 0.125795 0.260126 0.87202
428 1 0.106647 0.326202 0.825285
429 1 0.175445 0.323879 0.750279
430 1 0.227867 0.384625 0.74433
431 1 0.240034 0.321695 0.81794
432 1 0.171716 0.373337 0.805818
433 1 0.301775 0.333583 0.760673
434 1 0.358922 0.388227 0.771087
435 1 0.374907 0.313112 0.819164
436 1 0.296922 0.395348 0.818291
437 1 0.417137 0.330265 0.750301
265 1 0.0247847 0.104908 0.498754
392 1 0.431424 0.0160835 0.822414
502 1 0.497918 0.38537 0.891322
441 1 0.0423334 0.394309 0.682456
442 1 0.115266 0.445867 0.810826
443 1 0.167074 0.444456 0.739154
444 1 0.220089 0.439163 0.803681
445 1 0.293541 0.440881 0.747628
407 1 0.494533 0.0841628 0.810892
447 1 0.415944 0.388197 0.692905
439 1 0.431178 0.381612 0.830482
1452 1 0.495346 0.319769 0.822639
358 1 0.48341 0.278288 0.64209
489 1 0.0576062 0.317793 0.883193
492 1 0.0561536 0.382374 0.939198
835 1 0.170339 0.462328 0.627698
488 1 0.376435 0.184653 0.945174
459 1 0.122346 0.126894 0.992621
332 1 0.0471188 0.154597 0.690995
457 1 0.0599053 0.0704227 0.871386
458 1 0.124605 0.139076 0.875533
342 1 0.484435 0.151514 0.622786
460 1 0.113613 0.066264 0.932378
461 1 0.185442 0.0783313 0.871784
462 1 0.242471 0.132667 0.867202
463 1 0.244581 0.0659924 0.929177
464 1 0.184928 0.122884 0.93403
465 1 0.307372 0.0706802 0.869283
466 1 0.366839 0.127164 0.879695
467 1 0.374021 0.0669939 0.943274
468 1 0.304778 0.121544 0.939736
968 1 0.500279 0.436404 0.947949
454 1 0.307625 0.00833294 0.930063
24 1 0.254141 0.262583 0.995688
472 1 0.427596 0.0589345 0.884928
473 1 0.0560069 0.125838 0.931874
474 1 0.127734 0.194956 0.931365
475 1 0.0581589 0.255475 0.943359
476 1 0.0529304 0.208381 0.880682
477 1 0.186281 0.20894 0.876219
478 1 0.244202 0.262984 0.875204
384 1 0.489708 0.442883 0.692099
323 1 0.214929 0.0351019 0.629377
481 1 0.303155 0.197486 0.873792
482 1 0.308785 0.317441 0.866497
483 1 0.302067 0.266462 0.933258
484 1 0.366154 0.317355 0.932413
343 1 0.477175 0.0712909 0.689751
1292 1 0.481114 0.222348 0.558175
1500 1 0.495348 0.190666 0.942558
374 1 0.493611 0.404541 0.62234
470 1 0.480832 0.134223 0.877399
422 1 0.491722 0.257955 0.754311
324 1 0.158202 0.0308914 0.691017
438 1 0.478519 0.38269 0.767087
273 1 0.287053 0.0964745 0.512917
290 1 0.412391 0.216324 0.508733
277 1 0.40736 0.10024 0.510298
309 1 0.396286 0.333689 0.514161
1536 1 -0.000568428 0.438498 0.93539
14 1 0.000213356 0.189228 0.939035
278 1 0.472507 0.160984 0.501439
391 1 0.483178 0.0137475 0.750747
30 1 0.0557193 0.32325 1.00101
8 1 0.31369 0.0502959 0.996489
406 1 0.489282 0.137519 0.744616
33 1 0.123244 0.253692 0.997795
42 1 0.493237 0.371884 1.00008
305 1 0.279252 0.344788 0.505432
318 1 0.349843 0.400132 0.523537
25 1 0.444389 0.0611543 0.997773
451 1 0.244024 -0.00212763 1.00006
41 1 0.372274 0.252456 0.987232
2 1 0.0622745 0.0616642 0.991199
307 1 0.334002 0.268597 0.519246
22 1 0.316187 0.193296 0.993794
198 1 0.226319 0.0392449 0.501306
50 1 0.190254 0.450111 0.992327
298 1 0.161672 0.340152 0.501085
518 1 0.123315 0.553375 0.0628486
521 1 0.246376 0.551478 0.0603922
527 1 0.129186 0.611771 0.130026
531 1 0.178246 0.61682 0.0686212
532 1 0.0648461 0.674951 0.129629
536 1 0.244137 0.68165 0.063253
543 1 0.124538 0.80616 0.053448
547 1 0.0678359 0.738981 0.0741749
548 1 0.0735423 0.806189 0.123248
552 1 0.188936 0.748522 0.0552484
559 1 0.0659141 0.879066 0.0605557
563 1 0.19156 0.867795 0.0562391
564 1 0.118763 0.934556 0.0587758
568 1 0.261381 0.941469 0.0608072
577 1 0.0546965 0.553341 0.140555
579 1 0.185398 0.547595 0.130818
580 1 0.135227 0.550404 0.191438
582 1 0.199931 0.542254 0.250315
587 1 0.0787293 0.74369 0.192296
589 1 0.12528 0.678566 0.0686457
590 1 0.191793 0.685948 0.121176
591 1 0.202364 0.61172 0.195916
592 1 0.141856 0.663384 0.19088
593 1 0.242045 0.620059 0.127228
596 1 0.257958 0.67243 0.187372
605 1 0.134361 0.738309 0.130119
606 1 0.187702 0.805604 0.11188
607 1 0.201855 0.741514 0.19203
608 1 0.149176 0.807584 0.17984
609 1 0.252788 0.74929 0.11791
612 1 0.265694 0.724198 0.248661
618 1 0.0670194 0.933256 0.121998
619 1 0.0754381 0.866877 0.180145
621 1 0.203642 0.876031 0.18185
622 1 0.201202 0.937551 0.119033
623 1 0.261193 0.802485 0.194152
624 1 0.132762 0.8751 0.128809
625 1 0.248975 0.864137 0.118827
628 1 0.253287 0.936284 0.183952
641 1 0.0802712 0.611922 0.191149
644 1 0.147611 0.551972 0.324172
646 1 0.264935 0.53614 0.318572
650 1 0.0704325 0.809799 0.239334
651 1 0.0793016 0.605769 0.317233
653 1 0.14795 0.607019 0.259101
654 1 0.208389 0.669294 0.253768
655 1 0.209415 0.603061 0.319185
656 1 0.152986 0.672436 0.31743
657 1 0.268439 0.610096 0.253897
660 1 0.219877 0.601938 0.438132
666 1 0.141502 0.86557 0.254777
667 1 0.0912036 0.680683 0.250929
669 1 0.137715 0.762149 0.249008
670 1 0.202381 0.811716 0.245962
671 1 0.200108 0.740642 0.301046
672 1 0.142289 0.806387 0.313592
673 1 0.274724 0.660647 0.314479
676 1 0.272504 0.790961 0.312361
682 1 0.0779973 0.918345 0.249466
683 1 0.077162 0.855286 0.307966
685 1 0.140336 0.923997 0.310357
686 1 0.195695 0.928198 0.252674
687 1 0.211092 0.84532 0.312951
689 1 0.264396 0.863583 0.251665
692 1 0.266967 0.921944 0.301543
707 1 0.211809 0.540372 0.377969
710 1 0.286164 0.593114 0.372578
714 1 0.0890107 0.676458 0.367565
715 1 0.0963927 0.610043 0.441842
717 1 0.146419 0.612081 0.377729
718 1 0.218649 0.672011 0.370466
719 1 0.152441 0.544635 0.430211
720 1 0.155312 0.664525 0.437844
721 1 0.274016 0.660331 0.433204
730 1 0.0781031 0.74165 0.308381
731 1 0.0895099 0.727771 0.431695
733 1 0.14787 0.732779 0.368887
734 1 0.210536 0.786226 0.369904
735 1 0.214481 0.726505 0.428746
736 1 0.151581 0.787728 0.429628
737 1 0.281157 0.730822 0.372442
740 1 0.274226 0.788311 0.429603
746 1 0.0897877 0.924562 0.380837
747 1 0.0841148 0.838681 0.441571
749 1 0.0827611 0.791592 0.373171
750 1 0.147282 0.858443 0.373635
751 1 0.214916 0.842745 0.437662
752 1 0.167197 0.911582 0.426784
753 1 0.280845 0.855456 0.366344
756 1 0.285575 0.908036 0.427491
764 1 0.216898 0.905068 0.365916
170 1 0.0820121 0.547496 0.259913
633 1 0.142319 0.935082 0.184031
254 1 0.27783 0.536529 0.443337
571 1 0.250504 0.809009 0.0601252
586 1 0.0587824 0.624802 0.059616
126 1 0.268305 0.537801 0.190337
705 1 0.0874391 0.550018 0.37782
732 1 0.0235435 0.786342 0.432657
706 1 0.0345684 0.546151 0.43806
572 1 0.314752 0.859863 0.0726729
761 1 0.0295304 0.917259 0.440832
791 1 0.468074 0.528991 0.498046
810 1 0.092658 0.976706 0.439658
745 1 0.0171903 0.852257 0.377784
1539 1 0.499763 0.546217 0.0672762
626 1 0.314365 0.912414 0.136652
538 1 0.432623 0.671763 0.00960981
716 1 0.0363667 0.666861 0.449399
639 1 0.39295 0.987406 0.126928
829 1 0.22779 0.965198 0.441205
700 1 0.207556 0.979717 0.310185
594 1 0.318431 0.662811 0.124377
595 1 0.314698 0.60572 0.184474
659 1 0.328982 0.593277 0.311363
699 1 0.140059 0.992472 0.256816
649 1 0.0196766 0.612257 0.258045
581 1 0.32321 0.548802 0.129389
638 1 0.329758 0.993619 0.176169
652 1 0.0202374 0.677946 0.303394
134 1 0.265605 0.965504 0.369729
551 1 0.317329 0.745787 0.0608253
680 1 0.400608 0.728006 0.370168
1595 1 0.00592789 0.941234 0.0594107
578 1 0.00719755 0.562517 0.196915
690 1 0.32341 0.931435 0.238631
729 1 0.0264364 0.72579 0.365347
610 1 0.320217 0.802074 0.122032
762 1 0.0245867 0.983538 0.371816
553 1 0.378581 0.736307 0.00534925
642 1 0.0233262 0.549506 0.319104
62 1 0.182192 0.502806 0.0651988
620 1 0.0149634 0.928039 0.180182
697 1 0.00591908 0.984924 0.243789
535 1 0.310684 0.615265 0.0630305
576 1 0.43873 0.994679 0.0613543
617 1 0.0164419 0.869609 0.119346
688 1 0.161312 0.980293 0.379857
1673 1 0.440057 0.548319 0.128234
1625 1 0.498486 0.725902 0.125399
604 1 0.0149837 0.809043 0.177095
1549 1 0.490432 0.611432 0.00128066
703 1 0.382429 0.991656 0.240568
602 1 0.00583337 0.675608 0.180268
627 1 0.326254 0.862251 0.201806
665 1 0.0152467 0.741528 0.247295
674 1 0.327319 0.791005 0.241535
523 1 0.42381 0.561789 0.0033724
713 1 0.0240574 0.614638 0.371793
560 1 0.00504804 0.987507 0.122876
246 1 0.466259 0.534336 0.378365
7 1 0.322001 0.988263 0.0743694
698 1 0.0717049 0.986247 0.304623
782 1 0.212904 0.660936 0.493462
601 1 0.0107198 0.739768 0.127049
766 1 0.331519 0.974258 0.422624
574 1 0.189269 0.997315 0.0542698
658 1 0.32979 0.530893 0.260474
616 1 0.384362 0.79833 0.185464
709 1 0.394025 0.668537 0.317654
675 1 0.334964 0.717443 0.313859
814 1 0.222038 0.905301 0.490041
694 1 0.458393 0.940059 0.251075
827 1 0.161307 0.963506 0.493568
244 1 0.342996 0.525142 0.388002
681 1 0.00632317 0.85927 0.242313
684 1 0.0238856 0.917389 0.306777
635 1 0.13694 0.989581 0.11557
813 1 0.158111 0.851355 0.497516
757 1 0.397187 0.858863 0.360228
555 1 0.44288 0.734811 0.057534
533 1 0.243733 0.618501 0.0114593
598 1 0.375961 0.610663 0.130016
528 1 0.00653084 0.684677 0.0593415
544 1 0.00755259 0.802632 0.0542707
668 1 0.0184359 0.802356 0.304714
696 1 0.393374 0.932911 0.303969
524 1 0.379151 0.560177 0.0677089
693 1 0.399126 0.853008 0.247434
540 1 0.371964 0.673045 0.0659999
600 1 0.435246 0.672556 0.117167
768 1 0.459121 0.975599 0.445184
702 1 0.332947 0.990179 0.324824
741 1 0.338348 0.716053 0.434232
256 1 0.456224 0.594483 0.310699
647 1 0.446507 0.609299 0.180405
723 1 0.338454 0.599342 0.441279
744 1 0.396899 0.772784 0.4368
712 1 0.406689 0.536806 0.444763
1583 1 0.442372 0.86685 0.0673631
10 1 0.376786 0.994441 0.00394987
754 1 0.336419 0.919145 0.366381
767 1 0.403598 0.987613 0.379934
786 1 0.401703 0.654365 0.440944
758 1 0.459229 0.921399 0.373689
701 1 0.261994 0.989571 0.251206
259 1 0.291964 0.967213 0.49608
661 1 0.392136 0.597025 0.255957
755 1 0.347861 0.841695 0.436281
677 1 0.332219 0.658603 0.25693
632 1 0.388109 0.925118 0.194638
679 1 0.447789 0.661304 0.255587
611 1 0.321294 0.720901 0.180088
599 1 0.387025 0.655918 0.194678
738 1 0.338214 0.792227 0.377655
556 1 0.3841 0.807618 0.0641106
631 1 0.439276 0.861369 0.179633
1627 1 0.441288 0.726268 0.185794
570 1 0.374419 0.926725 0.0659145
726 1 0.45649 0.648934 0.36635
760 1 0.40025 0.921991 0.432557
664 1 0.388459 0.794056 0.311925
742 1 0.448222 0.788564 0.36322
630 1 0.460749 0.942487 0.135786
629 1 0.379096 0.853154 0.123358
614 1 0.437747 0.789141 0.127009
648 1 0.392319 0.542147 0.317264
1602 1 0.448826 0.541869 0.239853
727 1 0.465201 0.597983 0.441268
678 1 0.455874 0.79114 0.231748
597 1 0.379959 0.543669 0.195543
695 1 0.457877 0.871044 0.306169
725 1 0.457684 0.7266 0.309059
662 1 0.396222 0.596821 0.384557
539 1 0.444136 0.613151 0.0642988
722 1 0.342315 0.65941 0.376899
759 1 0.443297 0.842039 0.432567
615 1 0.380728 0.728437 0.240082
691 1 0.341156 0.870459 0.30146
743 1 0.4548 0.716821 0.429778
613 1 0.378367 0.731603 0.118294
636 1 0.200878 0.994718 0.185815
797 1 0.160484 0.720444 0.491309
537 1 0.365208 0.620099 0.00118859
634 1 0.0664317 0.991737 0.19479
831 1 0.385271 0.975348 0.489445
588 1 0.0024106 0.614778 0.117998
315 1 0.101501 0.547147 0.494469
724 1 0.276786 0.715805 0.492877
517 1 0.182628 0.569366 0.00544065
1016 1 0.446615 0.935723 0.00271754
534 1 0.307172 0.683851 0.00898826
567 1 0.385622 0.871294 0.00324132
807 1 0.470904 0.655453 0.499824
771 1 0.213238 0.535849 0.489431
822 1 0.455743 0.902471 0.50219
562 1 0.19734 0.933705 0.00360338
565 1 0.259831 0.876505 0.0105128
748 1 0.0953801 0.910656 0.49543
514 1 0.0590696 0.554528 0.00137809
806 1 0.460917 0.780568 0.487246
802 1 0.332468 0.775305 0.499011
522 1 0.369322 0.500749 0.0021456
988 1 0.076149 0.689591 0.00428073
566 1 0.311694 0.94532 1.5049e-05
554 1 0.434169 0.805895 0.00497269
900 1 0.169002 0.511861 0.813369
915 1 0.365335 0.501266 0.880194
897 1 0.120481 0.515854 0.736078
783 1 0.292037 0.535947 0.566048
446 1 0.362384 0.504617 0.767297
856 1 0.480271 0.65098 0.632638
525 1 0.00605669 0.63241 0.996935
1996 1 0.432747 0.648594 0.808174
899 1 0.234831 0.506521 0.750646
901 1 0.372924 0.576966 0.688145
779 1 0.105242 0.59367 0.565034
833 1 0.117745 0.521261 0.632983
960 1 0.481733 0.95248 0.820024
1020 1 0.250706 0.947578 0.929197
383 1 0.484264 0.505828 0.627812
784 1 0.161668 0.656953 0.556893
1019 1 0.180045 0.949604 0.870788
1018 1 0.124976 0.944777 0.935816
787 1 0.355948 0.602054 0.563314
788 1 0.280368 0.660086 0.561771
838 1 0.292648 0.523792 0.686571
2039 1 0.0610159 0.756276 0.943246
919 1 0.496558 0.571431 0.808456
526 1 0.00780015 0.688949 0.925195
1565 1 0.432587 0.626763 0.936183
1017 1 0.0644193 0.954787 0.875977
795 1 0.10534 0.71757 0.570533
2038 1 0.0137411 0.886638 0.86869
798 1 0.219844 0.786459 0.500235
769 1 0.164325 0.594318 0.499838
799 1 0.284097 0.702632 0.631584
800 1 0.159501 0.776275 0.570832
888 1 0.417348 0.900806 0.684694
796 1 0.0454381 0.781509 0.574427
803 1 0.345126 0.712486 0.557472
804 1 0.281164 0.76052 0.558937
780 1 0.0525172 0.656062 0.569697
1013 1 0.430315 0.820736 0.883249
520 1 0.301281 0.565379 0.998599
808 1 0.416464 0.774016 0.557087
1964 1 0.442796 0.876183 0.940241
1012 1 0.316426 0.883597 0.931291
811 1 0.112789 0.838588 0.55515
826 1 0.105381 0.976345 0.549838
825 1 0.0303847 0.973637 0.507179
1011 1 0.369609 0.81103 0.947522
815 1 0.233485 0.841086 0.566166
816 1 0.172148 0.893178 0.564362
830 1 0.346768 0.961648 0.56665
984 1 0.502221 0.569274 0.936379
819 1 0.339637 0.838653 0.556351
820 1 0.272214 0.914603 0.569361
1010 1 0.380438 0.896402 0.884918
870 1 0.476932 0.769005 0.618601
849 1 0.238111 0.530758 0.62568
824 1 0.410435 0.899838 0.559698
1009 1 0.31664 0.818617 0.885114
828 1 0.226332 0.985655 0.568838
1003 1 0.124135 0.81762 0.940106
781 1 0.226446 0.587564 0.56516
1008 1 0.186936 0.875808 0.937215
1865 1 0.469572 0.593417 0.700598
1007 1 0.251803 0.818484 0.932048
963 1 0.303938 0.507791 0.938553
809 1 0.0298846 0.832946 0.508543
896 1 0.48389 0.962277 0.684892
935 1 0.492896 0.701184 0.813877
801 1 0.21775 0.716362 0.552349
1408 1 0.0530654 0.515458 0.68964
967 1 0.427426 0.508541 0.815821
545 1 0.129877 0.752392 0.993477
1913 1 0.473057 0.895801 0.630186
841 1 0.0544445 0.591196 0.630513
842 1 0.108802 0.649651 0.638426
843 1 0.115397 0.580561 0.689289
844 1 0.0500494 0.645035 0.695353
845 1 0.172605 0.587831 0.628132
846 1 0.228566 0.645114 0.620905
847 1 0.236309 0.581366 0.69804
848 1 0.183422 0.638274 0.696275
773 1 0.348108 0.526159 0.509089
850 1 0.358175 0.647908 0.633488
851 1 0.292386 0.59329 0.623469
852 1 0.305031 0.632514 0.693538
979 1 0.444787 0.504676 0.945389
962 1 0.0548708 0.504181 0.933999
836 1 0.181361 0.513767 0.688004
982 1 0.435281 0.700759 0.880245
857 1 0.0450831 0.702511 0.638802
858 1 0.107385 0.777514 0.633529
859 1 0.111121 0.704944 0.692624
860 1 0.0487506 0.767097 0.691802
861 1 0.168906 0.718349 0.629728
862 1 0.240071 0.779183 0.625207
863 1 0.240137 0.69748 0.693673
864 1 0.171964 0.758469 0.698059
865 1 0.358166 0.768778 0.612713
866 1 0.410518 0.778007 0.678
867 1 0.361159 0.710602 0.684581
868 1 0.298779 0.769174 0.686436
869 1 0.421122 0.712504 0.612238
889 1 0.0487863 0.963905 0.617481
777 1 0.0369267 0.603844 0.50434
872 1 0.425276 0.707187 0.755107
873 1 0.0588489 0.844851 0.620445
874 1 0.106895 0.909796 0.612314
875 1 0.106875 0.840141 0.689183
876 1 0.0529968 0.909273 0.693606
877 1 0.168314 0.831682 0.626149
878 1 0.224589 0.889076 0.635086
879 1 0.231277 0.820561 0.690467
880 1 0.167699 0.904976 0.687276
881 1 0.294847 0.845736 0.640034
882 1 0.345673 0.902812 0.624597
883 1 0.364033 0.84077 0.691773
884 1 0.290218 0.909646 0.698765
885 1 0.406706 0.849543 0.626247
792 1 0.42247 0.533332 0.561502
549 1 0.24307 0.74286 0.999477
2041 1 0.500806 0.880782 0.879593