ITEM: TIMESTEP
100000
ITEM: NUMBER OF ATOMS
2048
ITEM: BOX BOUNDS xy xz yz pp pp pp
-7.9370052598409968e-01 1.2699208415745595e+01 0.0000000000000000e+00
0.0000000000000000e+00 1.3492908941729695e+01 -7.9370052598409968e-01
0.0000000000000000e+00 1.2699208415745595e+01 7.9370052598409968e-01
ITEM: ATOMS id type xs ys zs
1244 1 0.292493 0.306443 0.352493
119 1 0.126235 0.28231 0.222074
1145 1 0.205521 0.0365645 0.238382
319 1 0.466801 0.0123841 0.326847
1186 1 0.104571 0.0548441 0.389327
445 1 0.216696 0.115549 0.387669
1428 1 0.309272 0.0612186 0.470246
892 1 0.181067 0.156625 0.455226
439 1 0.171818 0.199196 0.342207
1556 1 0.10837 0.151358 0.133019
27 1 0.281141 0.462217 0.28799
393 1 0.0222163 0.0811364 0.102663
1876 1 0.490136 0.287437 0.278332
1810 1 0.042635 0.0341609 0.455444
1241 1 0.119828 0.245572 0.400126
779 1 0.329981 0.245923 0.0797141
738 1 0.328523 0.464074 0.0167173
2022 1 0.149515 0.498595 0.471065
1465 1 0.463369 0.386057 0.0276195
512 1 0.276066 0.377488 0.335374
1993 1 0.0185594 0.296632 0.142456
328 1 0.125853 0.170777 0.0559139
1898 1 0.248125 0.21621 0.313053
20 1 0.0293275 0.192104 0.288591
1990 1 0.227071 0.33528 0.137752
1502 1 0.192482 0.156992 0.149627
1704 1 0.192282 0.067724 0.0340268
1787 1 0.0937562 0.450713 0.188644
1426 1 0.305589 0.131758 0.413326
326 1 0.141572 0.149923 0.202937
1335 1 0.00888043 0.367203 0.27388
897 1 0.402995 0.451231 0.492985
1210 1 0.0968769 0.361476 0.174706
1173 1 0.0145169 0.485402 0.0681376
394 1 0.125448 0.155432 0.299475
488 1 0.483221 0.336282 0.0951272
228 1 0.0738801 0.252114 0.0997173
214 1 0.00522608 0.223349 0.120352
785 1 0.142986 0.288937 0.336286
723 1 0.312884 0.161741 0.324385
904 1 0.407927 0.196862 0.445664
1869 1 0.162452 0.415781 0.323192
1064 1 0.037657 0.160735 0.168444
24 1 0.331711 0.0525152 0.309975
1311 1 0.264156 0.348358 0.206803
1913 1 0.238366 0.205436 0.210277
381 1 0.246893 0.412361 0.106444
187 1 0.289514 0.456333 0.456599
351 1 0.282616 0.288721 0.114775
1981 1 0.409662 0.352107 0.0668535
1316 1 0.112349 0.0409594 0.305247
1307 1 0.328013 0.054812 0.398553
1203 1 0.26498 0.270812 0.24374
1523 1 0.210305 0.267347 0.166587
1826 1 0.271641 0.0550012 0.122803
1719 1 0.0997562 0.35672 0.259878
1824 1 0.220223 0.426847 0.181133
429 1 0.479812 0.196197 0.353869
1639 1 0.0580975 0.198561 0.388296
553 1 0.336137 0.226634 0.472873
1302 1 0.0806913 0.0523992 0.0527419
1861 1 0.0123601 0.324356 0.488623
732 1 0.148046 0.0923731 0.260958
943 1 0.422291 0.0360833 0.214331
1249 1 0.228653 0.356085 0.283057
192 1 0.0728024 0.243481 0.176606
1240 1 0.334041 0.35133 0.105086
1381 1 0.328058 0.0897628 0.228261
590 1 0.106559 0.153514 0.470366
677 1 0.192376 0.284819 0.281334
2015 1 0.0814301 0.332735 0.327099
595 1 0.0570105 0.378147 0.415317
107 1 0.349257 0.419256 0.419993
574 1 0.0892108 0.460065 0.419647
1102 1 0.18832 0.324397 0.200315
1087 1 0.149738 0.348177 0.0891298
1481 1 0.278614 0.101068 0.344772
231 1 0.0565888 0.285354 0.402176
342 1 0.140355 0.473251 0.360137
683 1 0.34469 0.348831 0.383644
619 1 0.292951 0.229066 0.37651
2047 1 0.0566083 0.282927 0.254316
858 1 0.263245 0.243727 0.44421
1081 1 0.129607 0.338277 0.386507
539 1 0.173168 0.0147012 0.0835079
1047 1 0.351223 0.00837591 0.169761
2018 1 0.431448 0.279385 0.438778
1355 1 0.249674 0.357517 0.0585791
854 1 0.154802 0.401722 0.205156
155 1 0.0103815 0.213387 0.211885
1610 1 0.0897134 0.421429 0.115458
1903 1 0.426979 0.453904 0.411603
466 1 0.127474 0.112201 0.0149721
1209 1 0.183549 0.233464 0.438246
1095 1 0.260784 0.097539 0.187635
404 1 0.3556 0.188696 0.384753
239 1 0.0658804 0.407959 0.336133
1965 1 0.479123 0.316273 0.182447
1243 1 0.0536315 0.408437 0.0523398
1606 1 0.322512 0.434071 0.0997408
1403 1 0.351197 0.39031 0.203369
1108 1 0.358944 0.118867 0.363341
89 1 0.130802 0.418818 0.0351331
1344 1 0.497181 0.010903 0.193209
999 1 0.367364 0.0736268 0.0601353
134 1 0.091598 0.330321 0.0260503
869 1 0.45337 0.134148 0.474591
865 1 0.0719297 0.12938 0.345872
1918 1 0.266518 0.194035 0.0841622
77 1 0.034881 0.400964 0.192645
2039 1 0.0964005 0.214453 0.329291
442 1 0.381263 0.117566 0.43637
1090 1 0.206443 0.0467872 0.327566
1223 1 0.123045 0.0282187 0.145906
1650 1 0.424181 0.376862 0.415717
1471 1 0.0206745 0.442682 0.383497
516 1 0.19456 0.388195 0.469229
949 1 0.346502 0.156706 0.199619
1611 1 0.129958 0.156612 0.395381
623 1 0.0490803 0.0375682 0.252579
70 1 0.470531 0.157814 0.121584
558 1 0.0659602 0.108372 0.425652
813 1 0.155637 0.0960154 0.344966
648 1 0.422162 0.239175 0.370272
1172 1 0.0318944 0.258261 0.333046
975 1 0.211488 0.354747 0.358966
577 1 0.483519 0.163458 0.225255
782 1 0.48175 0.205554 0.432708
599 1 0.0578572 0.350463 0.108325
879 1 0.485188 0.158193 0.0410818
1741 1 0.112899 0.44343 0.262309
344 1 0.0377724 0.400545 0.488891
421 1 0.0617728 0.122818 0.271618
500 1 0.384486 0.334689 0.166067
406 1 0.252989 0.121008 0.462779
1479 1 0.336782 0.341796 0.457012
1214 1 0.417221 0.137747 0.0722855
1441 1 0.160317 0.0981655 0.100842
1591 1 0.41242 0.185381 0.163039
307 1 0.20142 0.176919 0.0465321
692 1 0.397628 0.0225184 0.282958
1700 1 0.0198477 0.450295 0.275829
320 1 0.0101134 0.413125 0.110798
624 1 0.275642 0.163216 0.155443
698 1 0.353417 0.465 0.257777
1863 1 0.312862 0.226059 0.200448
759 1 0.436441 0.0914176 0.320059
1953 1 0.145987 0.486046 0.136844
510 1 0.00866469 0.12473 0.0192702
668 1 0.479736 0.0671383 0.261437
658 1 0.4123 0.170596 0.331217
583 1 0.451994 0.0561225 0.0536352
1725 1 0.268056 0.366203 0.418783
843 1 0.283283 0.0194004 0.200948
35 1 0.146419 0.412574 0.408881
513 1 0.0860502 0.0898719 0.178766
355 1 0.232737 0.115379 0.0831612
94 1 0.467091 0.0859926 0.173059
1524 1 0.414823 0.0254021 0.114471
1488 1 0.347316 0.178655 0.0484272
1036 1 0.418259 0.435684 0.277168
1930 1 0.397178 0.0319387 0.361518
1265 1 0.486773 0.422857 0.457976
1644 1 0.402093 0.209386 0.0872086
498 1 0.358337 0.459217 0.165164
1062 1 0.186121 0.0783346 0.174273
1848 1 0.398895 0.33462 0.244382
1093 1 0.113522 0.30168 0.459327
101 1 0.33585 0.429167 0.344773
1750 1 0.429164 0.488856 0.222166
537 1 0.214558 0.136 0.30903
1433 1 0.213963 0.315427 0.434115
1798 1 0.199064 0.456467 0.437761
1668 1 0.469125 0.354525 0.243709
1676 1 0.398058 0.370454 0.321862
1884 1 0.261341 0.464154 0.0484165
1328 1 0.11212 0.0204938 0.220956
1229 1 0.363902 0.14208 0.276382
1190 1 0.472876 0.395927 0.144033
1714 1 0.380137 0.253279 0.177397
414 1 0.470144 0.349002 0.320033
637 1 0.488974 0.269589 0.352151
659 1 0.389963 0.106359 0.137042
799 1 0.433523 0.417377 0.207449
920 1 0.0467236 0.0261882 0.153541
980 1 0.256454 0.079851 0.275622
1026 1 0.465847 0.241879 0.111106
281 1 0.317508 0.321231 0.263883
1230 1 0.447288 0.420205 0.350784
1695 1 0.224472 0.273279 0.361084
563 1 0.053065 0.180331 0.0827166
565 1 0.184208 0.452177 0.079291
1995 1 0.391012 0.287263 0.105331
958 1 0.208925 0.44807 0.259088
1440 1 0.361918 0.266927 0.411944
1637 1 0.181875 0.0797428 0.460311
1466 1 0.165023 0.401722 0.134231
1079 1 0.359622 0.282876 0.324642
1184 1 0.177574 0.222332 0.103263
209 1 0.21169 0.293637 0.0668021
1253 1 0.0241858 0.475746 0.48657
604 1 0.41774 0.117919 0.226319
1761 1 0.153816 0.220897 0.175581
2027 1 0.233192 0.0274016 0.464756
691 1 0.406107 0.195084 0.239034
1421 1 0.278137 0.152158 0.249638
1391 1 0.287473 0.461333 0.196307
100 1 0.439919 0.465979 0.13945
305 1 0.0152713 0.0749122 0.379058
584 1 0.446576 0.128419 0.398861
1849 1 0.0406107 0.24628 0.464544
1850 1 0.343345 0.186342 0.130009
1512 1 0.299653 0.112887 0.0327658
1037 1 0.320578 0.30487 0.187059
1136 1 0.472331 0.499364 0.356522
136 1 0.0898994 0.48862 0.0618309
29 1 0.318548 0.120629 0.105168
463 1 0.210787 0.00362332 0.164733
769 1 0.247815 0.0132035 0.395212
1152 1 0.431067 0.236056 0.293803
1257 1 0.493249 0.143528 0.307428
175 1 0.306518 0.0320237 0.0587502
964 1 0.399638 0.399761 0.118634
252 1 0.0670192 0.49278 0.331066
596 1 0.188737 0.191723 0.263331
1132 1 0.43476 0.0539392 0.440563
1114 1 0.240097 0.428006 0.371574
1373 1 0.493324 0.058573 0.379947
1852 1 0.0136085 0.161016 0.436796
1146 1 0.130766 0.297205 0.142316
1252 1 0.32395 0.396875 0.279258
1110 1 0.36949 0.25573 0.254131
1119 1 0.229604 0.192111 0.396701
1460 1 0.469373 0.278252 0.0438794
576 1 0.0857754 0.190233 0.236069
699 1 0.410963 0.314396 0.369738
1770 1 0.455205 0.239934 0.201093
749 1 0.46157 0.455471 0.0612683
1220 1 0.108212 0.376105 0.478366
675 1 0.174508 0.0281366 0.398728
336 1 0.340917 0.388513 0.031934
370 1 0.394439 0.278294 0.0322711
1001 1 0.383275 0.48415 0.0803183
2048 1 0.114753 0.0289764 0.48957
1464 1 0.336322 0.403748 0.498035
1323 1 0.267413 0.355228 0.499234
361 1 0.00549183 0.0466684 0.032884
821 1 0.489905 0.413963 0.283576
1320 1 0.489478 0.337101 0.439324
1080 1 0.302489 0.293442 0.0119441
170 1 0.146031 0.236043 0.017351
970 1 0.0688208 0.24834 0.0234885
709 1 0.159985 0.488508 0.212861
1113 1 0.0519381 0.00282316 0.359096
1014 1 0.0048616 0.0805336 0.200531
137 1 0.113425 0.228732 0.485666
808 1 0.187353 0.349557 0.0163018
686 1 0.26443 0.205256 0.00271525
641 1 0.391382 0.36489 0.880378
794 1 0.229293 0.43278 0.717042
1480 1 0.470923 0.0377207 0.963195
1167 1 0.186718 0.047622 0.723183
685 1 0.444792 0.109632 0.549872
531 1 0.0382124 0.0117695 0.541416
784 1 0.0935417 0.119832 0.605964
301 1 0.0233542 0.348578 0.976144
1635 1 0.268622 0.433586 0.878239
1356 1 0.35619 0.437585 0.880681
238 1 0.213092 0.477489 0.844239
426 1 0.0713286 0.343235 0.541685
1788 1 0.221759 0.256368 0.503577
824 1 0.099546 0.281622 0.717482
1736 1 0.269176 0.49058 0.935427
1743 1 0.426768 0.368663 0.807463
1558 1 0.0374136 0.137074 0.756847
1304 1 0.346674 0.0171683 0.886567
85 1 0.00623084 0.483051 0.861943
164 1 0.450363 0.110552 0.795799
1270 1 0.483778 0.464328 0.674174
1141 1 0.199842 0.25887 0.915365
988 1 0.0777262 0.17526 0.99269
184 1 0.40645 0.436725 0.831687
1720 1 0.381328 0.0867838 0.512198
620 1 0.448094 0.0242917 0.753654
1612 1 0.437257 0.258398 0.653094
1792 1 0.464056 0.32433 0.681531
1111 1 0.262153 0.242503 0.788293
2004 1 0.360445 0.0860442 0.751208
1754 1 0.19226 0.14026 0.604492
2010 1 0.176952 0.495212 0.924541
42 1 0.372776 0.247155 0.770446
1024 1 0.37564 0.251019 0.6925
371 1 0.177615 0.423017 0.530208
570 1 0.224678 0.362363 0.558922
213 1 0.190332 0.215597 0.833968
1049 1 0.215111 0.0803948 0.653059
1525 1 0.49928 0.110641 0.977226
227 1 0.0904799 0.140118 0.899223
921 1 0.25898 0.191955 0.502643
928 1 0.33602 0.492848 0.623177
1941 1 0.0958983 0.274883 0.606768
600 1 0.199135 0.386021 0.637455
1380 1 0.269787 0.155792 0.761518
1557 1 0.445027 0.214321 0.739599
806 1 0.0654263 0.0686535 0.827168
218 1 0.436238 0.458972 0.915327
523 1 0.366352 0.324818 0.806498
1834 1 0.244405 0.202758 0.590631
222 1 0.383762 0.434411 0.575805
1278 1 0.186598 0.478706 0.662301
61 1 0.119138 0.00445757 0.563457
842 1 0.179754 0.344744 0.938872
1046 1 0.348913 0.226329 0.978091
1588 1 0.109203 0.177796 0.54818
1782 1 0.485544 0.419538 0.780658
1623 1 0.382324 0.210068 0.618276
1362 1 0.17566 0.277907 0.734125
1536 1 0.395215 0.141844 0.595675
1303 1 0.311989 0.132392 0.596295
1773 1 0.17405 0.324233 0.51548
1334 1 0.436659 0.29533 0.952454
454 1 0.119469 0.0284742 0.987803
670 1 0.399628 0.433276 0.983927
783 1 0.458197 0.0459726 0.520833
1455 1 0.349911 0.296794 0.936485
1679 1 0.239427 0.190953 0.926659
1503 1 0.498674 0.0273889 0.89518
1453 1 0.0559869 0.289616 0.810938
2038 1 0.167763 0.314 0.603638
905 1 0.0869664 0.218312 0.852527
1587 1 0.14323 0.0902462 0.842928
1331 1 0.262398 0.04476 0.915364
299 1 0.0542427 0.337352 0.663277
499 1 0.120095 0.478653 0.96984
924 1 0.464594 0.477728 0.524275
1640 1 0.499513 0.360181 0.835888
1554 1 0.000477009 0.102295 0.696135
1023 1 0.398278 0.358661 0.965089
1407 1 0.0360517 0.474425 0.991573
811 1 0.0663039 0.34865 0.740335
1442 1 0.421868 0.198219 0.982871
812 1 0.156409 0.246907 0.66943
591 1 0.020153 0.27309 0.694783
289 1 0.28429 0.44241 0.65534
728 1 0.178103 0.19424 0.519107
1808 1 0.0788205 0.476807 0.643043
760 1 0.416146 0.312361 0.739975
1711 1 0.0690325 0.42624 0.901013
1786 1 0.45971 0.412141 0.6147
181 1 0.129467 0.468613 0.838912
1339 1 0.322782 0.201558 0.557769
310 1 0.473001 0.243 0.50803
432 1 0.268952 0.454258 0.796312
1039 1 0.192086 0.201795 0.741219
586 1 0.24559 0.314175 0.737403
178 1 0.403863 0.0515342 0.927249
1963 1 0.228739 0.278915 0.997147
1474 1 0.192097 0.140197 0.796687
1272 1 0.231783 0.078042 0.823394
895 1 0.257438 0.376417 0.773035
1956 1 0.0601168 0.213803 0.674722
925 1 0.0919437 0.378982 0.611375
647 1 0.236421 0.0261996 0.990668
1369 1 0.103837 0.296946 0.959643
913 1 0.0133242 0.268119 0.60384
111 1 0.386677 0.385774 0.728544
1370 1 0.189424 0.03212 0.539597
1254 1 0.300273 0.408057 0.573716
1034 1 0.141957 0.330575 0.670914
1859 1 0.485647 0.299063 0.897028
957 1 0.277886 0.344667 0.619012
3 1 0.154438 0.0660213 0.599385
259 1 0.46491 0.0997708 0.629055
1226 1 0.115749 0.0262005 0.733242
823 1 0.21717 0.397548 0.833365
1886 1 0.458239 0.0943024 0.716339
1633 1 0.116716 0.206793 0.727358
710 1 0.111093 0.166214 0.804476
1429 1 0.0486577 0.0576416 0.753277
327 1 0.124937 0.0837596 0.673874
1574 1 0.250135 0.427237 0.513767
1662 1 0.400868 0.289468 0.885128
471 1 0.39581 0.00763365 0.687119
68 1 0.475841 0.492632 0.847655
696 1 0.489305 0.172185 0.548128
1329 1 0.392572 0.0748168 0.836275
1279 1 0.0553449 0.0909614 0.964376
1269 1 0.328279 0.0884888 0.890911
494 1 0.32391 0.184179 0.891267
2009 1 0.0535996 0.18795 0.599094
681 1 0.102319 0.0578797 0.903697
117 1 0.346131 0.477497 0.800097
655 1 0.274306 0.366648 0.689418
2032 1 0.310735 0.139465 0.502397
1462 1 0.376893 0.14846 0.944914
1889 1 0.189271 0.364134 0.724268
798 1 0.00328726 0.408185 0.857346
1712 1 0.3918 0.32142 0.657806
505 1 0.212324 0.32281 0.813804
1180 1 0.44047 0.316059 0.507283
1200 1 0.0417046 0.450559 0.806925
481 1 0.383568 0.266079 0.516914
1732 1 0.461583 0.277868 0.821749
716 1 0.454283 0.148441 0.904366
1012 1 0.318583 0.425205 0.952882
373 1 0.288683 0.345217 0.950208
452 1 0.473177 0.0252475 0.675868
1758 1 0.483609 0.398464 0.707595
395 1 0.328277 0.325125 0.736131
631 1 0.483249 0.332253 0.770247
900 1 0.271905 0.142592 0.669215
1537 1 0.138549 0.334004 0.777023
1545 1 0.149457 0.173489 0.956102
22 1 0.140984 0.393934 0.881679
768 1 0.033728 0.184369 0.516065
724 1 0.00896425 0.33662 0.841963
787 1 0.324139 0.434768 0.726523
1531 1 0.434742 0.238558 0.579484
63 1 0.0557714 0.258869 0.545499
1844 1 0.0310218 0.421628 0.633006
2030 1 0.231793 0.341003 0.885916
530 1 0.437453 0.486486 0.596128
1975 1 0.260956 0.165782 0.845618
1293 1 0.462558 0.381506 0.917852
469 1 0.289932 0.314524 0.809032
1175 1 0.206873 0.417576 0.917333
334 1 0.127357 0.235442 0.919702
1313 1 0.347868 0.129484 0.6635
302 1 0.230332 0.437832 0.595493
444 1 0.155121 0.233074 0.574977
1082 1 0.286292 0.0619341 0.660803
1211 1 0.107032 0.453871 0.507487
743 1 0.284099 0.264148 0.933734
186 1 0.115605 0.102697 0.762776
2016 1 0.0704505 0.11403 0.525038
611 1 0.0495643 0.221797 0.778876
1764 1 0.324268 0.191655 0.726448
1710 1 0.404347 0.308252 0.579337
76 1 0.440806 0.4897 0.780655
1497 1 0.282024 0.251819 0.719269
758 1 0.0593156 0.433581 0.713676
829 1 0.0845749 0.37372 0.827764
526 1 0.375844 0.142962 0.860908
233 1 0.331801 0.254199 0.869628
1434 1 0.384098 0.477171 0.720415
1805 1 0.065116 0.440679 0.565972
1153 1 0.40669 0.151222 0.715379
1865 1 0.169973 0.157448 0.886858
561 1 0.185846 0.0673758 0.947162
834 1 0.31317 0.482977 0.538864
832 1 0.339618 0.33869 0.543479
1815 1 0.39234 0.0726308 0.642008
1306 1 0.00862334 0.360953 0.593793
559 1 0.0699111 0.347156 0.906995
120 1 0.303813 0.154376 0.962878
741 1 0.419394 0.0431782 0.581064
815 1 0.253004 0.242726 0.866761
271 1 0.00648564 0.491391 0.665293
615 1 0.136755 0.010519 0.647021
1094 1 0.314139 0.112335 0.81284
1155 1 0.326609 0.0604333 0.586411
701 1 0.170601 0.4769 0.750543
1357 1 0.106507 0.294668 0.874896
1954 1 0.0317472 0.145538 0.830851
725 1 0.136274 0.443152 0.605415
1476 1 0.271404 0.0824421 0.754575
6 1 0.246746 0.0137172 0.781017
1299 1 0.141011 0.412084 0.678879
1543 1 0.309784 0.206974 0.645199
1577 1 0.260629 0.0225143 0.604787
1775 1 0.211873 0.195586 0.664271
1178 1 0.315 0.342931 0.877853
1528 1 0.4127 0.384221 0.53191
1107 1 0.395167 0.2159 0.892741
2045 1 0.131486 0.255402 0.796682
747 1 0.00565831 0.445143 0.929197
1182 1 0.453387 0.198574 0.82887
851 1 0.0471905 0.207203 0.912821
1454 1 0.137027 0.172177 0.644559
1811 1 0.0026195 0.0336411 0.663537
1835 1 0.108864 0.382026 0.964496
1106 1 0.16429 0.0359252 0.796143
568 1 -0.00120202 0.171742 0.650855
1506 1 0.132994 0.000361128 0.858369
1395 1 0.44796 0.183324 0.660644
475 1 0.322315 0.0408906 0.809672
392 1 0.234063 0.297125 0.66448
1597 1 0.118567 0.42464 0.772633
1645 1 0.245151 0.117795 0.923619
1225 1 0.069381 0.13554 0.689729
1971 1 0.231908 0.285519 0.578869
754 1 0.319264 0.277355 0.581172
918 1 0.316247 0.287751 0.661181
1687 1 0.272748 0.0401651 0.53071
40 1 0.340783 0.391604 0.650937
1389 1 0.240618 0.412274 0.993282
1727 1 0.336963 0.0854368 0.979376
48 1 0.194313 0.13311 0.70982
1888 1 0.330957 0.193852 0.809916
1998 1 0.294846 0.282017 0.504961
632 1 0.337573 0.397728 0.81723
1532 1 0.390675 0.16376 0.786322
1067 1 0.0285073 0.28665 0.901437
1765 1 0.401409 0.445416 0.649842
1893 1 0.243834 0.11211 0.550598
947 1 0.0656088 0.0402693 0.615221
1595 1 0.477836 0.221383 0.899019
447 1 0.344345 0.0120434 0.528971
467 1 0.494379 0.436377 0.97424
661 1 0.393045 0.0222284 0.999996
1570 1 0.155806 0.115747 0.537773
96 1 0.398002 0.172028 0.527736
185 1 0.209373 0.011931 0.862845
1762 1 0.493749 0.287753 0.590513
1666 1 0.218982 0.0026396 0.665403
354 1 0.424058 0.0971908 0.986387
116 1 0.49155 0.0357364 0.8195
1887 1 0.426443 0.00605734 0.859633
1696 1 0.0489616 0.00215767 0.976902
1860 1 0.182033 0.497517 0.575699
1216 1 0.154375 0.00193934 0.927248
1586 1 0.229618 0.129658 0.997433
557 1 0.130823 0.762144 0.0585369
156 1 0.376797 0.524886 0.0140811
225 1 0.160329 0.906451 0.339545
744 1 0.0798566 0.895913 0.244074
1607 1 0.269953 0.738912 0.392057
687 1 0.127722 0.576814 0.137169
1259 1 0.167368 0.718598 0.262305
1789 1 0.00945117 0.793271 0.170805
938 1 0.0412039 0.604886 0.429772
883 1 0.443679 0.945563 0.349626
1961 1 0.0879641 0.645661 0.254552
1397 1 0.0524524 0.671259 0.1751
944 1 0.427453 0.915259 0.465347
781 1 0.232943 0.520623 0.485056
1349 1 0.0969449 0.660943 0.0937563
1430 1 0.00693444 0.934508 0.378044
411 1 0.484078 0.616686 0.0833549
46 1 0.279075 0.679382 0.268918
971 1 0.13324 0.852986 0.0283878
546 1 0.0651222 0.634863 0.348812
807 1 0.397345 0.597153 0.245133
898 1 0.119662 0.603291 0.401918
1070 1 0.286725 0.964557 0.01813
284 1 0.201064 0.974041 0.351492
602 1 0.265772 0.624684 0.0997533
1365 1 0.12146 0.800495 0.151513
23 1 0.285562 0.677442 0.44784
963 1 0.270396 0.603886 0.319796
162 1 0.179333 0.627217 0.0960866
1282 1 0.113176 0.765 0.283796
7 1 0.435259 0.79897 0.189738
1942 1 0.0959623 0.960123 0.159317
1086 1 0.206028 0.518286 0.0295914
1521 1 0.129502 0.718611 0.125773
1952 1 0.290715 0.828349 0.0847218
609 1 0.120894 0.694002 0.201151
831 1 0.423346 0.622298 0.493629
401 1 0.363071 0.799157 0.0636208
311 1 0.0971741 0.5864 0.21151
84 1 0.492882 0.548192 0.232315
193 1 0.0982398 0.689256 0.31136
1749 1 0.338914 0.677165 0.385034
248 1 0.262341 0.767338 0.250418
1516 1 0.00583981 0.669398 0.289931
888 1 0.281067 0.766457 0.0238953
909 1 0.144292 0.625306 0.334929
1796 1 0.0887622 0.548438 0.447872
1352 1 0.316792 0.50206 0.364427
930 1 0.138736 0.794261 0.448141
1745 1 0.322401 0.873886 0.168624
1901 1 0.487138 0.851248 0.207151
265 1 0.154266 0.631301 0.18402
340 1 0.405687 0.575203 0.354
387 1 0.490577 0.586872 0.480173
135 1 0.487805 0.816227 0.453331
315 1 0.0526342 0.716793 0.234083
875 1 0.17409 0.690609 0.0522445
131 1 0.456762 0.898095 0.131608
506 1 0.403666 0.588724 0.101234
703 1 0.144188 0.85543 0.40549
1854 1 0.199716 0.560098 0.16805
65 1 0.244794 0.862731 0.391235
742 1 0.249294 0.700173 0.0593076
697 1 0.379136 0.521389 0.41499
478 1 0.337953 0.620136 0.457748
1085 1 0.15008 0.875564 0.18661
270 1 0.235169 0.870842 0.299263
946 1 0.101303 0.845655 0.308947
665 1 0.462238 0.615814 0.301547
810 1 0.0657393 0.751004 0.149795
1982 1 0.106171 0.964139 0.450909
1642 1 0.177994 0.577459 0.269639
1294 1 0.270193 0.928561 0.34876
1562 1 0.420909 0.81816 0.116677
496 1 0.022088 0.848855 0.274872
112 1 0.174228 0.75809 0.188843
1609 1 0.190678 0.961018 0.280018
1271 1 0.339232 0.800019 0.14161
2002 1 0.258675 0.93113 0.151284
638 1 0.163429 0.871119 0.274074
1015 1 0.328093 0.850966 0.0120324
1505 1 0.0756097 0.791792 0.213394
1870 1 0.321612 0.988547 0.273359
1737 1 0.46779 0.528098 0.103674
33 1 0.0449113 0.97456 0.21479
871 1 0.102296 0.957998 0.279777
1358 1 0.233518 0.709698 0.204769
1857 1 0.38581 0.945475 0.401889
814 1 0.0414801 0.906796 0.055414
1760 1 0.162301 0.648279 0.460897
1790 1 0.386683 0.847574 0.441625
890 1 0.49146 0.948847 0.0889694
304 1 0.0616013 0.508818 0.144277
1408 1 0.207073 0.704583 0.127215
903 1 0.145147 0.814754 0.236845
1877 1 0.363498 0.726344 0.33211
1332 1 0.181288 0.827889 0.343907
833 1 0.370223 0.669626 0.191281
1013 1 0.281899 0.5679 0.169026
1688 1 0.378382 0.660476 0.11908
1330 1 0.0664013 0.804721 0.0457089
1883 1 0.0448648 0.638738 0.0235237
1921 1 0.157881 0.859268 0.484206
54 1 0.463475 0.97138 0.0167156
1360 1 0.229032 0.633777 0.164258
1170 1 0.349022 0.532269 0.204194
56 1 0.437808 0.542636 0.293049
1997 1 0.0278896 0.956117 0.466782
237 1 0.0463655 0.739468 0.31104
1573 1 0.400862 0.771905 0.447809
1367 1 0.172036 0.946616 0.133189
1636 1 0.0607485 0.754481 0.474668
726 1 0.302076 0.668799 0.153208
79 1 0.192992 0.886956 0.0761003
1202 1 0.305103 0.944003 0.210801
195 1 0.0159548 0.799522 0.41218
853 1 0.0240341 0.597672 0.163176
1987 1 0.212804 0.57665 0.356876
551 1 0.256534 0.993534 0.301921
1652 1 0.259505 0.879646 0.493778
1123 1 0.00981407 0.916446 0.304192
1908 1 0.32654 0.52423 0.130379
2001 1 0.209307 0.818222 0.4463
1217 1 0.209209 0.64105 0.287223
1751 1 0.0253468 0.982908 0.0960264
1564 1 0.112422 0.602631 0.0473473
1843 1 0.180566 0.928075 0.41383
349 1 0.112927 0.875489 0.104142
492 1 0.237201 0.909867 0.0114619
37 1 0.331544 0.900885 0.427176
321 1 0.379054 0.938567 0.165033
422 1 0.162929 0.759646 0.376119
1649 1 0.308318 0.959204 0.469281
524 1 0.306551 0.822956 0.429433
1728 1 0.0333648 0.672187 0.461678
1104 1 0.381851 0.931507 0.245309
1371 1 0.0786439 0.892844 0.456495
1100 1 0.375128 0.877555 0.108764
1291 1 0.301703 0.914416 0.281489
639 1 0.352792 0.565343 0.301456
891 1 0.242678 0.60943 0.475201
983 1 0.430584 0.797765 0.0336931
1600 1 0.326496 0.62177 0.238452
128 1 0.174279 0.816317 0.0982878
866 1 0.347366 0.640712 0.312676
1890 1 0.0820131 0.57661 0.295981
1818 1 0.473941 0.723275 0.460999
220 1 0.25962 0.548738 0.0829576
775 1 0.456555 0.687309 0.100997
1477 1 0.447856 0.571036 0.0333027
733 1 0.387595 0.502167 0.336684
1413 1 0.295102 0.529677 0.254794
633 1 0.435449 0.548748 0.170644
912 1 0.44713 0.633044 0.171384
1709 1 0.312512 0.86152 0.345898
90 1 0.277617 0.732886 0.317384
1946 1 0.381963 0.745775 0.191947
1346 1 0.0899834 0.826051 0.498636
1350 1 0.458206 0.723911 0.321417
1698 1 0.39462 0.745154 0.115054
796 1 0.467215 0.710943 0.222963
74 1 0.315942 0.749467 0.454348
582 1 0.252333 0.590765 0.242827
143 1 0.199536 0.696876 0.334119
1970 1 0.208001 0.773151 0.297136
1347 1 0.420608 0.717857 0.389086
934 1 0.145689 0.939775 0.222081
1031 1 0.368182 0.6914 0.454883
1925 1 0.167048 0.953585 0.042182
1492 1 0.0584423 0.589103 0.101217
337 1 0.413614 0.768463 0.269147
1412 1 0.102946 0.696904 0.452113
1620 1 0.258073 0.926445 0.424573
927 1 0.0390724 0.546525 0.0175867
335 1 0.0835373 0.911296 0.339381
12 1 0.0601425 0.509686 0.222246
1828 1 0.181342 0.77505 0.00749452
435 1 0.232117 0.853015 0.139119
211 1 0.087483 0.747161 0.394797
1333 1 0.448992 0.657013 0.436495
38 1 0.217075 0.835898 0.222824
788 1 0.312782 0.737238 0.0951995
894 1 0.242128 0.506416 0.384863
1032 1 0.331958 0.791342 0.295117
1585 1 0.426488 0.649625 0.357647
382 1 0.332437 0.571876 0.0607131
378 1 0.257529 0.803671 0.348085
1708 1 0.21993 0.498837 0.131653
1273 1 0.495815 0.785361 0.254419
1565 1 0.0150413 0.531753 0.282535
966 1 0.0964296 0.614753 0.481814
521 1 0.00939969 0.710539 0.39912
1038 1 0.470491 0.570566 0.401287
626 1 0.0564099 0.718707 0.0626314
751 1 0.363117 0.819959 0.23132
385 1 0.241702 0.776641 0.1623
707 1 0.230741 0.763571 0.0858966
1822 1 0.14165 0.547935 0.356239
1602 1 0.341432 0.781165 0.37915
535 1 0.399688 0.804431 0.334793
1731 1 0.192368 0.636295 0.395944
1366 1 0.185617 0.562735 0.43498
1900 1 0.387485 0.969036 0.0596454
363 1 0.371948 0.952158 0.328434
1605 1 0.484641 0.832411 0.0745846
1234 1 0.329148 0.973983 0.105217
840 1 0.294869 0.91092 0.0702574
440 1 0.162934 0.548815 0.0798069
1125 1 0.385978 0.879119 0.368715
1425 1 0.043516 0.55094 0.369824
1276 1 0.347275 0.59912 0.15728
1194 1 0.243252 0.628417 0.0272108
1179 1 0.340972 0.732477 0.254452
1972 1 0.367121 0.525393 0.492142
402 1 0.293656 0.52915 0.436545
529 1 0.302814 0.735715 0.182995
755 1 0.411113 0.675049 0.265186
278 1 0.471335 0.744449 0.151542
722 1 0.429573 0.877085 0.0150375
674 1 0.224034 0.934934 0.222763
1541 1 0.0723149 0.857522 0.167617
1208 1 0.359425 0.862514 0.289326
1463 1 0.310348 0.992968 0.359076
597 1 0.292861 0.845813 0.247988
1784 1 0.327752 0.600122 0.388719
331 1 0.403572 0.588816 0.434117
372 1 0.451498 0.932167 0.213111
1842 1 0.264257 0.661416 0.376758
1866 1 0.368237 0.723616 0.0368986
1715 1 0.351819 0.925843 0.0103526
1783 1 0.12947 0.681132 0.38422
312 1 0.065818 0.854232 0.389638
1663 1 0.43643 0.875242 0.292026
376 1 0.404888 0.874805 0.204019
1188 1 0.492081 0.744666 0.060481
1858 1 0.461301 0.808299 0.382124
1878 1 0.471671 0.880967 0.402957
275 1 0.198896 0.503677 0.313213
31 1 0.408392 0.653076 0.0394376
1955 1 0.327333 0.662653 0.0598807
1894 1 0.123832 0.517844 0.273888
1400 1 0.452215 0.52546 0.45881
1112 1 0.451832 0.706905 0.00549353
848 1 0.124087 0.970612 0.374094
1627 1 0.100021 0.968461 0.0754454
69 1 0.00203689 0.597257 0.321559
95 1 0.0174147 0.845746 0.0981795
1159 1 0.220779 0.525088 0.243027
1135 1 0.473979 0.962419 0.278242
1096 1 0.174199 0.6003 0.00229332
911 1 0.0321585 0.922439 0.146877
993 1 0.214455 0.743058 0.447238
1721 1 0.247781 0.983683 0.0909675
1622 1 0.457451 0.98654 0.412648
1181 1 0.00539619 0.510036 0.416337
1139 1 0.000168956 0.647934 0.0836678
1066 1 0.00228285 0.603729 0.24873
1517 1 0.379096 0.996435 0.461587
71 1 0.463941 0.969763 0.498034
83 1 0.233176 0.955678 0.490234
761 1 0.497442 0.828429 0.313892
1795 1 0.233697 0.83389 0.00218657
2021 1 0.0570717 0.887463 0.901749
809 1 0.127016 0.693858 0.577075
1638 1 0.0661965 0.867121 0.792791
44 1 0.145452 0.747118 0.937931
507 1 0.175813 0.565401 0.68027
165 1 0.318136 0.990649 0.9521
797 1 0.0573602 0.528097 0.772643
545 1 0.118552 0.714913 0.663543
688 1 0.0155077 0.668334 0.755291
282 1 0.313641 0.523008 0.711257
819 1 0.00038176 0.576171 0.630312
132 1 0.0652502 0.598475 0.592908
10 1 0.248095 0.586894 0.726442
542 1 0.105328 0.525384 0.532475
1255 1 0.278725 0.958635 0.887501
793 1 0.247224 0.76642 0.850375
14 1 0.20124 0.974927 0.589295
479 1 0.305542 0.568664 0.923042
1985 1 0.233636 0.854315 0.657505
752 1 0.0122881 0.81317 0.534979
1198 1 0.163627 0.905744 0.590516
789 1 0.476484 0.735506 0.602167
996 1 0.401959 0.786464 0.873521
802 1 0.445735 0.898527 0.943422
756 1 0.432978 0.95368 0.798491
470 1 0.279331 0.880927 0.780006
907 1 0.175241 0.549118 0.867102
325 1 0.43438 0.616522 0.569947
1560 1 0.142583 0.538471 0.799649
1000 1 0.115929 0.751075 0.75941
437 1 0.316748 0.607835 0.703138
1726 1 0.236543 0.507812 0.724744
443 1 0.0700968 0.985169 0.781244
1778 1 0.412727 0.961225 0.633814
1018 1 0.348085 0.506049 0.939132
410 1 0.413949 0.769601 0.66254
67 1 0.0481586 0.85093 0.981653
1862 1 0.280282 0.789244 0.946893
1989 1 0.0100868 0.642222 0.888812
1264 1 0.15698 0.616974 0.92318
1006 1 0.295871 0.953898 0.54298
1022 1 0.101031 0.595442 0.667255
1227 1 0.111881 0.528039 0.90613
656 1 0.473722 0.811559 0.838423
1394 1 0.160238 0.777607 0.697929
221 1 0.47054 0.667284 0.950651
2023 1 0.491852 0.655808 0.601662
58 1 0.390748 0.800332 0.589865
1405 1 0.272181 0.686496 0.836409
1539 1 0.149364 0.63724 0.534948
274 1 0.31316 0.754716 0.652766
350 1 0.484682 0.556983 0.59508
1919 1 0.327074 0.706237 0.738738
1991 1 0.470385 0.506575 0.978308
1939 1 0.160711 0.916827 0.978099
773 1 0.498489 0.511053 0.731982
352 1 0.147392 0.775442 0.827763
1566 1 0.495864 0.85846 0.734953
1823 1 0.43976 0.620417 0.647098
1177 1 0.479912 0.869418 0.529523
1002 1 0.294339 0.97876 0.717988
1383 1 0.191906 0.624413 0.854983
682 1 0.0394346 0.879429 0.643513
308 1 0.162405 0.951526 0.814974
1977 1 0.258716 0.696785 0.653891
1143 1 0.496652 0.813623 0.583732
762 1 0.297172 0.684467 0.592124
628 1 0.0371779 0.52345 0.91356
1984 1 0.0745992 0.56055 0.843745
174 1 0.0720694 0.80903 0.888754
2025 1 0.181019 0.705903 0.812425
168 1 0.391501 0.70852 0.811978
770 1 0.0760098 0.946963 0.536912
552 1 0.389944 0.942335 0.562566
1445 1 0.311213 0.759608 0.568861
575 1 0.0377196 0.880004 0.514301
914 1 0.242798 0.776761 0.614318
841 1 0.151762 0.925445 0.51264
1864 1 0.426737 0.826759 0.710132
753 1 0.276269 0.532367 0.581301
1740 1 0.200027 0.791206 0.918986
736 1 0.0499761 0.711917 0.696439
705 1 0.394653 0.878803 0.662377
945 1 0.153443 0.927904 0.891896
1677 1 0.407213 0.598057 0.814609
881 1 0.308464 0.607689 0.59281
606 1 0.135361 0.85451 0.854023
790 1 0.183049 0.842239 0.558973
255 1 0.345537 0.558643 0.774169
113 1 0.488006 0.727645 0.699054
748 1 0.218477 0.959757 0.941042
1833 1 0.175032 0.742052 0.620445
1950 1 0.354107 0.634666 0.764801
1205 1 0.427556 0.856417 0.779855
1043 1 0.491782 0.58241 0.938474
942 1 0.109105 0.918931 0.741346
978 1 0.00614627 0.808427 0.628225
150 1 0.00969038 0.744077 0.754063
1673 1 0.0878709 0.851172 0.580221