ITEM: TIMESTEP
100000
ITEM: NUMBER OF ATOMS
2048
ITEM: BOX BOUNDS xy xz yz pp pp pp
-8.2207069144348999e-01 1.3153131063095840e+01 0.0000000000000000e+00
0.0000000000000000e+00 1.3975201754539329e+01 -8.2207069144348999e-01
0.0000000000000000e+00 1.3153131063095840e+01 8.2207069144348999e-01
ITEM: ATOMS id type xs ys zs
1292 1 0.0764135 0.0676751 0.0853348
2003 1 0.431746 0.380241 0.381324
806 1 0.124146 0.152144 0.0438483
1245 1 0.48707 0.1182 0.0160825
363 1 0.115166 0.264269 0.453045
491 1 0.417744 0.331684 0.218987
265 1 0.428614 0.17978 0.00809297
1393 1 0.111382 0.186902 0.132597
1807 1 0.19182 0.00337015 0.409614
1367 1 0.257336 0.409613 0.0979497
1749 1 0.0569823 0.405112 0.41378
211 1 0.18255 0.391318 0.136542
1744 1 0.113801 0.290953 0.143442
1622 1 0.191548 0.00772378 0.33196
34 1 0.0634279 0.383386 0.105288
1098 1 0.281049 0.116964 0.199057
597 1 0.371246 0.448399 0.443639
59 1 0.394666 0.240002 0.104563
1302 1 0.169923 0.251068 0.242417
1163 1 0.130755 0.0776797 0.0192717
181 1 0.21186 0.164896 0.0355656
1915 1 0.141188 0.195796 0.438707
905 1 0.273452 0.355177 0.49994
1459 1 0.118792 0.374785 0.27883
1600 1 0.204476 0.447462 0.311517
1776 1 0.479647 0.0361741 0.13712
226 1 0.207777 0.0930871 0.325671
703 1 0.399047 0.0245967 0.185376
552 1 0.44717 0.470756 0.470321
977 1 0.251007 0.481081 0.0488853
266 1 0.392556 0.362577 0.0475684
603 1 0.204245 0.468973 0.185487
331 1 0.225923 0.393732 0.375993
663 1 0.272087 0.0863002 0.110429
1325 1 0.0508818 0.299638 0.257345
1095 1 0.153507 0.22705 0.31884
1398 1 0.371203 0.337035 0.356783
1512 1 0.106704 0.343455 0.409927
1658 1 0.149495 0.285412 0.373651
665 1 0.107303 0.170917 0.343497
364 1 0.496802 0.497143 0.12103
1834 1 0.0908074 0.243913 0.200988
687 1 0.47161 0.35892 0.184754
1251 1 0.422869 0.00569182 0.257316
249 1 0.433936 0.089909 0.0656514
387 1 0.398102 0.0754103 0.126174
32 1 0.0218031 0.238797 0.443625
1995 1 0.354534 0.340308 0.285443
1433 1 0.00915861 0.147214 0.468076
421 1 0.206019 0.184154 0.210253
233 1 0.233454 0.397658 0.268886
760 1 0.255447 0.256604 0.496264
1539 1 0.0928303 0.445006 0.220985
529 1 0.340167 0.119626 0.146942
1268 1 0.237864 0.253305 0.307818
1421 1 0.185706 0.449189 0.0194622
1167 1 0.170449 0.158402 0.382568
1119 1 0.418747 0.296906 0.285326
1955 1 0.137047 0.451404 0.446468
550 1 0.333 0.177674 0.207535
1281 1 0.0790546 0.203881 0.491987
821 1 0.465354 0.106801 0.489993
1372 1 0.121075 0.0393907 0.157315
984 1 0.00819708 0.105255 0.332478
876 1 0.0128482 0.447014 0.373155
1899 1 0.114569 0.316204 0.225854
297 1 0.0917269 0.045786 0.415624
1040 1 0.432573 0.0296567 0.484607
1831 1 0.0349405 0.306041 0.106372
732 1 0.0451687 0.221714 0.123159
1487 1 0.0433754 0.367154 0.222371
1419 1 0.0628927 0.473662 0.036183
900 1 0.0220871 0.182883 0.32618
472 1 0.203533 0.387816 0.468255
263 1 0.0477296 0.13568 0.281257
1144 1 0.248941 0.0561179 0.389012
738 1 0.253945 0.411785 0.178443
1248 1 0.410537 0.0283065 0.412435
222 1 0.262101 0.331698 0.137942
238 1 0.47183 0.280832 0.347287
324 1 0.469038 0.348633 0.499751
1125 1 0.390193 0.317808 0.11451
100 1 0.452726 0.268337 0.489974
488 1 0.463678 0.348093 0.322092
1437 1 0.355995 0.0889626 0.0396698
381 1 0.325635 0.325317 0.195027
1719 1 0.351197 0.126368 0.31108
1348 1 0.347675 0.0818933 0.487325
1875 1 0.452021 0.434765 0.25101
1942 1 0.0571 0.177422 0.398012
711 1 0.274803 0.217663 0.0784551
377 1 0.383886 0.0579004 0.304777
754 1 0.29776 0.0965123 0.354908
308 1 0.139462 0.133469 0.286384
695 1 0.260558 0.426615 0.472348
1086 1 0.448188 0.131817 0.320409
1049 1 0.268316 0.484541 0.344758
1432 1 0.47681 0.114238 0.123097
1540 1 0.260879 0.0285535 0.459557
1427 1 0.326272 0.353387 0.0985886
1066 1 0.209736 0.167482 0.293523
617 1 0.108116 0.492865 0.388415
1804 1 0.317854 0.448294 0.0621381
1305 1 0.296611 0.357865 0.397595
753 1 0.233093 0.245226 0.146276
828 1 0.212395 0.0615583 0.180917
495 1 0.277541 0.101799 0.458593
708 1 0.157189 0.230539 0.162432
1990 1 0.0425127 0.0852409 0.448249
1217 1 0.0564426 0.163847 0.0824562
883 1 0.203188 0.367816 0.0107767
1304 1 0.264274 0.291525 0.417221
357 1 0.322379 0.020272 0.336897
2041 1 0.444695 0.110073 0.198039
205 1 0.0811566 0.318117 0.332684
1520 1 0.237737 0.315807 0.348388
776 1 0.103768 0.118407 0.394904
798 1 0.384869 0.144474 0.0883589
780 1 0.192951 0.34897 0.213589
849 1 0.10134 0.247014 0.0700445
1021 1 0.0971645 0.200192 0.265773
1752 1 0.0611062 0.172961 0.204536
963 1 0.0165597 0.345238 0.158635
796 1 0.464479 0.194645 0.43728
1274 1 0.115112 0.438053 0.141603
1577 1 0.135335 0.102533 0.127789
2011 1 0.152176 0.303627 0.081427
230 1 0.456883 0.0789834 0.272304
1157 1 0.276207 0.475918 0.141315
423 1 0.112002 0.364243 0.163712
1574 1 0.447194 0.450062 0.0950218
91 1 0.465527 0.384694 0.105295
966 1 0.39924 0.260884 0.358605
1814 1 0.133584 0.445662 0.294954
1988 1 0.372082 0.484403 0.113449
974 1 0.449393 0.441466 0.167047
286 1 0.188798 0.251589 0.463435
441 1 0.245112 0.288103 0.0664734
1695 1 0.126479 0.348119 0.00559487
771 1 0.11244 0.00747315 0.0678
1275 1 0.194911 0.0481368 0.0680417
954 1 0.0743204 0.0605718 0.333003
773 1 0.419577 0.400895 0.482704
1772 1 0.0900824 0.104147 0.220818
1280 1 0.489053 0.489795 0.369918
519 1 0.114478 0.386535 0.480348
620 1 0.436553 0.230013 0.246271
1170 1 0.304048 0.256424 0.256921
634 1 0.198967 0.126563 0.0967073
1764 1 0.330918 0.192624 0.121313
370 1 0.402842 0.390945 0.312423
65 1 0.363292 0.21853 0.290749
70 1 0.285697 0.433927 0.404872
646 1 0.179686 0.287529 0.00505129
1340 1 0.0539774 0.0924821 0.0149841
1272 1 0.386767 0.291567 0.0428883
409 1 0.164868 0.419775 0.225723
856 1 0.423583 0.310365 0.430037
1616 1 0.394447 0.160522 0.25405
310 1 0.390065 0.0888434 0.368855
1006 1 0.244673 0.269939 0.213041
1629 1 0.196912 0.453632 0.10083
1152 1 0.418804 0.464314 0.383636
1200 1 0.425634 0.00764793 0.0673449
1847 1 0.465494 0.427 0.331939
867 1 0.00834985 0.472599 0.204156
2000 1 0.29826 0.191825 0.439669
834 1 0.456276 0.217225 0.31643
1533 1 0.168884 0.00567074 0.216297
1404 1 0.164288 0.113151 0.19187
533 1 0.211382 0.241498 0.387571
842 1 0.327843 0.169171 0.0434088
342 1 0.293581 0.0219483 0.0643986
1811 1 0.0338205 0.0653994 0.26665
2042 1 0.19918 0.492911 0.473416
1796 1 0.157801 0.358053 0.354354
1295 1 0.319312 0.408453 0.149037
1882 1 0.319326 0.406227 0.344264
589 1 0.16792 0.323447 0.450414
428 1 0.00295827 0.274724 0.0465499
1624 1 0.279585 0.035325 0.276936
391 1 0.0518221 0.4649 0.449587
256 1 0.0395555 0.319094 0.392565
885 1 0.19456 0.462434 0.400109
1841 1 0.331702 0.272382 0.10884
1181 1 0.459455 0.259437 0.0572117
716 1 0.105827 0.0248659 0.260314
877 1 0.277911 0.322639 0.271456
1750 1 0.130737 0.117515 0.466811
1314 1 0.0699126 0.308709 0.0330329
1654 1 0.379961 0.0868907 0.226761
1853 1 0.4008 0.169075 0.159295
438 1 0.223856 0.00322218 0.127752
1564 1 0.458616 0.0165053 0.334438
1054 1 0.0132206 0.00905951 0.460612
1145 1 0.377382 0.265599 0.217603
1360 1 0.280897 0.375549 0.0308127
269 1 0.126615 0.416467 0.380941
1999 1 0.0183596 0.269833 0.178149
924 1 0.271233 0.11037 0.0329761
406 1 0.0708171 0.12364 0.149276
1072 1 0.449775 0.11255 0.413112
338 1 0.133128 0.473864 0.0633301
114 1 0.448957 0.404282 0.017566
1760 1 0.305636 0.3936 0.271228
1933 1 0.371922 0.161926 0.445284
1628 1 0.272654 0.14024 0.275492
520 1 0.212342 0.352906 0.0815008
1625 1 0.362995 0.441222 0.255348
163 1 0.446946 0.185773 0.0958309
585 1 0.0527954 0.344656 0.460518
24 1 0.480587 0.00449665 0.213231
93 1 0.340782 0.291225 0.460279
317 1 0.393992 0.392267 0.123354
792 1 0.185465 0.322841 0.286703
1505 1 0.0459368 0.437873 0.296696
1785 1 0.222019 0.164962 0.446687
430 1 0.271026 0.186829 0.171292
64 1 0.402907 0.487758 0.208877
1415 1 0.0601328 0.383331 0.0254592
762 1 0.346539 0.0130773 0.241971
1261 1 0.294401 0.193881 0.343443
439 1 0.320949 0.0431692 0.405623
690 1 0.377716 0.235929 0.423401
980 1 0.497749 0.263361 0.429529
1301 1 0.1888 0.302229 0.160309
638 1 0.260783 0.149567 0.387933
1647 1 0.408603 0.187798 0.370871
456 1 0.450867 0.276754 0.176269
128 1 0.191832 0.0872802 0.424466
562 1 0.0764254 0.233341 0.352383
156 1 0.187893 0.228371 0.0606899
186 1 0.312726 0.304628 0.0358972
1842 1 0.143989 0.0662607 0.361704
1178 1 0.204961 0.0550712 0.255836
463 1 0.382412 0.394486 0.1976
836 1 0.491999 0.318132 0.0851376
1486 1 0.370661 0.377626 0.428453
751 1 0.317889 0.26209 0.34142
782 1 0.249843 0.46536 0.244436
840 1 0.493187 0.428066 0.408978
334 1 0.129269 0.393582 0.0806726
1137 1 0.304483 0.25108 0.177656
1815 1 0.0377229 0.381587 0.341407
1155 1 0.0108582 0.235157 0.26544
1402 1 0.0404187 0.451957 0.117117
581 1 0.341772 0.487591 0.381299
1913 1 0.490874 0.0277338 0.4115
2016 1 0.324706 0.488824 0.206698
129 1 0.0420957 0.0617827 0.177202
1132 1 0.304289 0.0512393 0.177464
990 1 0.0102223 0.280017 0.322968
400 1 0.00685409 0.117871 0.217152
1310 1 0.49573 0.286367 0.235599
847 1 0.497401 0.35928 0.263103
1233 1 0.48677 0.169987 0.256785
1558 1 0.0186794 0.0255428 0.383907
240 1 0.464235 0.332513 0.00926731
82 1 0.133478 0.21868 0.00290708
1064 1 0.36422 0.237274 0.00495481
1919 1 0.463143 0.33717 0.632
1012 1 0.370381 0.441936 0.628748
657 1 0.0148313 0.127849 0.708311
1767 1 0.160073 0.0561891 0.634631
655 1 0.27116 0.0912833 0.944066
321 1 0.045133 0.172089 0.629028
2046 1 0.478469 0.0495151 0.998835
955 1 0.25921 0.479416 0.971165
563 1 0.344463 0.179952 0.781974
1635 1 0.125228 0.182914 0.606795
1120 1 0.4421 0.199686 0.919576
1653 1 0.407997 0.0199748 0.55523
1568 1 0.468112 0.413453 0.735173
1424 1 0.397762 0.404029 0.932449
593 1 0.22702 0.380809 0.847412
1065 1 0.354687 0.0142468 0.992505
225 1 0.27894 0.28979 0.729078
735 1 0.344464 0.178626 0.861335
2028 1 0.162665 0.0561941 0.777
612 1 0.0942093 0.461963 0.716552
545 1 0.40305 0.0730437 0.654045
1347 1 0.0157136 0.399448 0.912799
1443 1 0.402866 0.175691 0.586306
1522 1 0.201744 0.264889 0.837871
1953 1 0.15521 0.227966 0.927385
1436 1 0.304207 0.294599 0.543424
1230 1 0.373111 0.139826 0.528224
401 1 0.112349 0.073572 0.891672
841 1 0.0876561 0.0436803 0.973475
111 1 0.403378 0.309577 0.712106
185 1 0.32866 0.229571 0.629699
1442 1 0.037191 0.0191598 0.581619
239 1 0.0804376 0.233001 0.929412
1258 1 0.452899 0.0443788 0.612468
449 1 0.251931 0.411441 0.768639
1902 1 0.188474 0.065407 0.903144
811 1 0.44209 0.251964 0.972398
1008 1 0.150176 0.442718 0.86836
668 1 0.132832 0.15173 0.539343
1039 1 0.191283 0.18273 0.685959
1598 1 0.418777 0.334236 0.557356
542 1 0.178348 0.13451 0.630208
1972 1 0.255956 0.235374 0.678385
866 1 0.0246118 0.0976137 0.60952
774 1 0.319684 0.252048 0.856344
822 1 0.368596 0.492272 0.835922
565 1 0.491863 0.196659 0.865294
564 1 0.169295 0.350021 0.525056
1384 1 0.291619 0.436119 0.601092
1420 1 0.0475144 0.481794 0.773101
473 1 0.265717 0.292478 0.624705
47 1 0.0855045 0.175812 0.822709
1162 1 0.389102 0.40644 0.551957
633 1 0.116179 0.304816 0.51142
660 1 0.312924 0.105839 0.647878
366 1 0.21765 0.208577 0.896137
1950 1 0.358171 0.353093 0.747781
566 1 0.371476 0.408573 0.850707
941 1 0.036032 0.290198 0.667901
4 1 0.339127 0.398109 0.994392
1670 1 0.022862 0.168656 0.769014
1592 1 0.142159 0.24044 0.706779
397 1 0.0643173 0.456788 0.928977
1590 1 0.0959336 0.202413 0.756011
1941 1 0.497176 0.378293 0.957011
1043 1 0.304839 0.121671 0.741531
241 1 0.275129 0.166436 0.5054
347 1 0.448363 0.453202 0.953128
483 1 0.407822 -0.00154578 0.672272
1708 1 0.193277 0.00535826 0.952281
322 1 0.344409 0.38438 0.665383
1210 1 0.227321 0.358489 0.721174
105 1 0.0122728 0.256696 0.602066
337 1 0.37069 0.254104 0.573414
1303 1 0.298171 0.388785 0.719755
81 1 0.254047 0.0796096 0.711046
588 1 0.221775 0.291325 0.546904
670 1 0.0346663 0.0106153 0.935013
171 1 0.484378 0.0264434 0.551343
1198 1 0.205572 0.140655 0.767012
2033 1 0.380947 0.068121 0.811611
1683 1 0.240325 0.0693088 0.634583
810 1 0.330558 0.351372 0.817139
982 1 0.389851 0.240517 0.836918
508 1 0.0942891 0.403194 0.768309
1203 1 0.245412 0.365485 0.577393
244 1 0.313357 0.330737 0.950303
951 1 0.131438 0.319656 0.718988
209 1 0.346027 0.0795269 0.930363
1147 1 0.315596 0.412893 0.52768
1379 1 0.27557 0.0165965 0.760695
889 1 0.129043 0.133742 0.749269
440 1 0.380242 0.0260128 0.879606
894 1 0.0119022 0.0533572 0.69258
1179 1 0.115453 0.440391 0.993112
281 1 0.00979667 0.448646 0.842273
897 1 0.493019 0.11463 0.841327
942 1 0.193698 0.299827 0.689539
413 1 0.270183 0.0429761 0.895093
813 1 0.0817771 0.444124 0.556157
394 1 0.426277 0.08589 0.727372
1403 1 0.0475013 0.246635 0.989444
1595 1 0.125081 0.309009 0.941646
1706 1 0.287254 0.481292 0.751645
1405 1 0.411006 0.328669 0.805284
432 1 0.294167 0.378861 0.889903
1067 1 0.171919 0.350563 0.809046
1287 1 0.296079 0.496147 0.526407
1392 1 0.0252943 0.19542 0.890822
571 1 0.216432 0.0256905 0.822406
173 1 0.436144 0.0767562 0.886446
872 1 0.450019 0.250897 0.757956
174 1 0.171591 0.462643 0.658402
470 1 0.479384 0.122845 0.595737
224 1 0.445739 0.358113 0.873513
1151 1 0.24987 0.304673 0.987357
247 1 0.119126 0.318903 0.649801
35 1 0.360822 0.496077 0.757689
1241 1 0.263556 0.182123 0.736541
178 1 0.368286 0.174655 0.6606
551 1 0.127523 0.107159 0.82605
853 1 0.238298 0.017753 0.573503
1822 1 0.208632 0.488957 0.806954
200 1 0.133023 0.40107 0.703032
1096 1 0.425717 0.380376 0.670419
925 1 0.345221 0.282251 0.787567
371 1 0.433047 0.24231 0.66239
848 1 0.144234 0.239113 0.540354
1755 1 0.203188 0.368664 0.925162
1994 1 0.38554 0.479624 0.536703
1344 1 0.112447 0.249536 0.626938
142 1 0.475442 0.296074 0.921675
1946 1 0.390667 0.0820834 0.582199
895 1 0.07701 0.29578 0.880701
30 1 0.0468936 0.15096 0.555607
1475 1 0.397709 0.216522 0.507226
1399 1 0.201729 0.366836 0.641516
2044 1 0.328844 0.314266 0.674876
1500 1 0.434063 0.125528 0.792163
1101 1 0.0421158 0.269919 0.805032
1171 1 0.333015 0.375708 0.5916
305 1 0.271056 0.0225781 0.975481
929 1 0.395961 0.310383 0.637145
1466 1 0.284144 0.0764658 0.532314
541 1 0.11894 0.230236 0.862268
1298 1 0.0947803 0.0752514 0.52263
814 1 0.291316 0.12241 0.877185
1679 1 0.259782 0.184247 0.83398
1382 1 0.357007 0.0490484 0.736888
927 1 0.0104952 0.344345 0.860044
493 1 0.275015 0.0913894 0.801446
1161 1 0.398323 0.339495 0.967499
489 1 0.120222 0.272834 0.792075
1951 1 0.448046 0.275725 0.593281
1677 1 0.0794421 0.15879 0.981586
672 1 0.032463 0.366081 0.77051
315 1 0.0919735 0.498256 0.648097
1964 1 0.0656646 0.3374 0.966121
689 1 0.1778 0.488851 0.73264
1090 1 0.257257 0.40738 0.958873
248 1 0.0823153 0.413419 0.874825
2001 1 0.429711 0.478914 0.701261
1061 1 0.305565 0.452857 0.676301
1024 1 0.184719 0.298146 0.896513
60 1 0.180121 0.426825 0.781914
1034 1 0.0662049 0.0238655 0.849393
212 1 0.440345 0.139092 0.665953
511 1 0.142942 0.380709 0.586271
354 1 0.0534314 0.101954 0.941998
1508 1 0.0717601 0.29715 0.577566
819 1 0.111141 0.0182373 0.575281
873 1 0.0237978 0.424018 0.724975
772 1 0.175585 0.0857639 0.701834
1573 1 0.330239 0.417671 0.778475
938 1 0.0996199 0.360492 0.828023
301 1 0.40936 0.417155 0.787329
580 1 0.487006 0.172737 0.727639
1057 1 0.130136 0.474236 0.799591
124 1 0.101369 0.159262 0.89515
1848 1 0.106394 0.102325 0.590187
1611 1 0.230112 0.149917 0.962281
287 1 0.174249 0.310598 0.595764
29 1 0.0688189 0.49711 0.847556
625 1 0.314442 0.0555409 0.595732
1270 1 0.222432 0.473774 0.593164
1122 1 0.0984995 0.0549385 0.733168
477 1 0.404408 0.171767 0.731949
1112 1 0.464336 0.407696 0.569697
1503 1 0.0616175 0.220794 0.564109
964 1 0.0403288 0.0807913 0.79457
2017 1 0.481143 0.420535 0.874836
1555 1 0.334721 0.141062 0.588745
653 1 0.247933 0.451126 0.893153
860 1 0.0506936 0.362747 0.686162
193 1 0.33447 0.458551 0.893198
1516 1 0.187287 0.247293 0.639313
1334 1 0.478262 0.0785175 0.677909
1937 1 0.218321 0.0151113 0.68446
299 1 0.364546 0.184202 0.933346
1856 1 0.306232 0.0205828 0.668132
1342 1 0.0946172 0.176002 0.684675
1797 1 0.123692 0.385917 0.935523
2006 1 0.166843 0.427075 0.532624
1673 1 0.295454 0.455778 0.828239
1718 1 0.290376 0.211492 0.94219
482 1 0.46382 0.203065 0.61597
631 1 0.15045 0.161118 0.970269
1567 1 0.206725 0.0986659 0.839609
36 1 0.0692846 0.363749 0.605801
1296 1 0.0370559 0.102495 0.863899
600 1 0.439756 0.00677791 0.921348
1077 1 0.287056 0.216494 0.568313
103 1 0.355961 0.249778 0.71919
304 1 0.460013 0.176869 0.521204
326 1 0.242331 0.340755 0.78967
176 1 0.276354 0.363344 0.64706
79 1 0.43677 0.00238184 0.813836
425 1 0.32268 0.22801 0.505607
1554 1 0.0283509 0.305226 0.736231
216 1 0.23968 0.424602 0.667368
950 1 0.257976 0.136448 0.591324
1688 1 0.10476 0.420715 0.625756
608 1 0.485994 0.311028 0.778403
1630 1 0.491328 0.309247 0.705002
1116 1 0.413044 0.144428 0.871064
1453 1 0.171479 0.149085 0.882476
1253 1 0.260154 0.290646 0.882823
820 1 0.211067 0.194227 0.592534
1242 1 0.440281 0.473161 0.611679
31 1 0.0358154 0.22367 0.697141
20 1 0.120343 0.481017 0.503476
775 1 0.383306 0.325474 0.886661
884 1 0.257134 0.1554 0.662476
1745 1 0.390825 0.411338 0.717134
2014 1 0.440304 0.129017 0.943888
861 1 0.0861464 0.0989248 0.6635
1139 1 0.40366 0.08146 0.989972
1032 1 0.182338 0.482497 0.918798
487 1 0.178106 0.08633 0.565465
1724 1 0.38196 0.256943 0.927391
1671 1 0.268732 0.264339 0.796751
1277 1 0.201561 0.259857 0.753551
1838 1 0.437246 0.490863 0.850615
1614 1 0.197535 0.188361 0.507703
1319 1 0.15923 0.194732 0.81067
416 1 0.319282 0.132471 0.978785
870 1 0.0324823 0.429146 0.63808
1862 1 0.14282 0.00139574 0.705668
444 1 0.222379 0.230769 0.973766
851 1 0.0768466 0.00524231 0.659986
396 1 0.00363967 0.382892 0.569809
1441 1 0.44539 0.489587 0.775102
778 1 0.218665 0.109398 0.511025
44 1 0.216295 0.0709841 0.993831
785 1 0.292051 0.00433215 0.8392
656 1 0.0212886 0.487803 0.97655
260 1 0.493553 0.0972448 0.752744
402 1 0.497387 0.242828 0.543363
1079 1 0.0442097 0.281656 0.504789
1978 1 0.394627 0.45929 0.997561
46 1 0.36592 0.34698 0.505217
667 1 0.030623 0.409512 0.501619
1097 1 0.172926 0.636293 0.261361
766 1 0.321053 0.855731 0.0461653
1869 1 0.157512 0.861208 0.388426
2008 1 0.247124 0.845722 0.377075
250 1 0.458863 0.870164 0.235493
715 1 0.386327 0.730327 0.0862973
1720 1 0.157824 0.837209 0.469828
28 1 0.215653 0.566703 0.480976
1832 1 0.115588 0.601672 0.42949
1632 1 0.200311 0.527656 0.344217
729 1 0.0579785 0.642714 0.492777
888 1 0.112621 0.81198 0.112658
1734 1 0.0980078 0.929308 0.0596142
418 1 0.181591 0.738747 0.346148
1980 1 0.0514246 0.528919 0.13439
1715 1 0.240289 0.65146 0.479857
1434 1 0.152442 0.931942 0.308982
451 1 0.475498 0.633545 0.380794
1060 1 0.14576 0.840232 0.176194
1535 1 0.292483 0.969718 0.423653
490 1 0.0513472 0.863254 0.119122
1050 1 0.22781 0.53116 0.27801
1631 1 0.104467 0.55035 0.489695
574 1 0.183427 0.754127 0.0831497
1492 1 0.261538 0.695412 0.28432
352 1 0.293078 0.616641 0.0850435
1482 1 0.162747 0.590092 0.0594015
1387 1 0.0133026 0.585207 0.381636
1349 1 0.154432 0.809589 0.331573
1704 1 0.00454031 0.593488 0.451734
1074 1 0.375368 0.680809 0.330127
1126 1 0.222731 0.603585 0.222375
1788 1 0.18449 0.924345 0.214532
1450 1 0.487216 0.819718 0.428684
45 1 0.137692 0.652186 0.337182
97 1 0.435082 0.907079 0.330972
1206 1 0.45158 0.824123 0.327844
844 1 0.0129562 0.829288 0.378846
1524 1 0.262288 0.802045 0.236959
191 1 0.269288 0.669704 0.0208538
1000 1 0.45715 0.823908 0.00427005
1059 1 0.299062 0.873554 0.245266
973 1 0.0745015 0.745338 0.257206
645 1 0.244996 0.806875 0.148196
1440 1 0.184157 0.593894 0.157879
1154 1 0.368351 0.560139 0.0897647
1996 1 0.0292338 0.99953 0.120342
1188 1 0.375845 0.898826 0.175658
1224 1 0.324944 0.734878 0.326981
1388 1 0.0525634 0.537716 0.422112
2048 1 0.287495 0.866865 0.170414
1069 1 0.48884 0.796495 0.118812
1579 1 0.113389 0.701153 0.377391
478 1 0.348844 0.61943 0.215153
949 1 0.133235 0.663638 0.464556
343 1 0.427322 0.70238 0.398294
123 1 0.362144 0.848641 0.11879
1160 1 0.070184 0.90673 0.310024
997 1 0.0845139 0.95198 0.136666
154 1 0.17255 0.838665 0.0801509
826 1 0.357622 0.911105 0.296734
896 1 0.430922 0.527345 0.0578604
947 1 0.333104 0.596432 0.0280727
480 1 0.435889 0.949636 0.483482
1108 1 0.175023 0.764929 0.174858
1733 1 0.0388835 0.734876 0.0428593
1925 1 0.182829 0.543385 0.414108
360 1 0.370259 0.533338 0.254447
1987 1 0.43327 0.884917 0.141219
1336 1 0.482815 0.707961 0.137065
452 1 0.260777 0.970876 0.349217
2034 1 0.229345 0.607256 0.0167888
712 1 0.305742 0.511048 0.288539
115 1 0.255853 0.768247 0.317251
658 1 0.486547 0.607168 0.0449044
1829 1 0.0942084 0.758656 0.324164
405 1 0.11299 0.679115 0.263509
1341 1 0.0468997 0.826397 0.307251
1538 1 0.277982 0.653815 0.342296
1928 1 0.214881 0.873418 0.158921
203 1 0.493378 0.727183 0.432376
446 1 0.130084 0.954919 0.437458
1102 1 0.119123 0.585645 0.26558
71 1 0.0822676 0.671489 0.109894
904 1 0.160108 0.957414 0.146118
1138 1 0.221061 0.698026 0.405971
309 1 0.197854 0.869247 0.312162
1121 1 0.249057 0.763335 0.0563114
930 1 0.0943021 0.820994 0.39113
1790 1 0.0998608 0.910888 0.380315
1425 1 0.150656 0.50569 0.140471
1865 1 0.254358 0.551318 0.16804
1917 1 0.499584 0.752689 0.283207
781 1 0.202425 0.74048 0.248703
767 1 0.0375799 0.617831 0.127029
278 1 0.262377 0.609764 0.402653
1821 1 0.0429 0.633261 0.324835
1851 1 0.207468 0.680294 0.206756
1109 1 0.13035 0.795041 0.240903
435 1 0.0615078 0.665906 0.0131067
177 1 0.347262 0.679745 0.0166161
1518 1 0.199986 0.919639 0.368233
1479 1 0.449807 0.680692 0.0766583
83 1 0.358695 0.975942 0.386732
135 1 0.436463 0.554206 0.306261
557 1 0.104773 0.725287 0.184306
544 1 0.300644 0.534199 0.10909
1589 1 0.105615 0.56222 0.352213
915 1 0.414648 0.686078 0.148663
175 1 0.400319 0.729175 0.00665636
1747 1 0.351188 0.580774 0.334991
1430 1 0.040372 0.658608 0.246535
50 1 0.318945 0.767585 0.0409695
462 1 0.0425346 0.875188 0.240453
1519 1 0.37676 0.947997 0.0689347
878 1 0.0985144 0.543503 0.0559205
592 1 0.104134 0.537346 0.189568
1692 1 0.0353868 0.886672 0.421315
1115 1 0.370651 0.608461 0.451281
1543 1 0.154561 0.518629 0.264959
448 1 0.00490678 0.684865 0.373734
1308 1 0.456394 0.572555 0.480862
291 1 0.024412 0.739512 0.201614
788 1 0.0361652 0.711289 0.312455
1825 1 0.0352688 0.951424 0.377571
1986 1 0.226698 0.954401 0.28362
832 1 0.428533 0.784724 0.25682
136 1 0.24306 0.644248 0.136002
1176 1 0.296754 0.696275 0.0936857
1238 1 0.109351 0.761128 0.0608275
179 1 0.193802 0.70651 0.485738
939 1 0.307464 0.963942 0.295742
1798 1 0.405113 0.807948 0.19006
1686 1 0.247912 0.719899 0.144422
1895 1 0.256409 0.908333 0.431918
52 1 0.195822 0.829228 0.238841
1091 1 0.116866 1.00017 0.34697
196 1 0.286204 0.659259 0.215748
1927 1 0.493312 0.948465 0.311476
1243 1 0.350677 0.70379 0.262584
731 1 0.247002 0.887981 0.0792474
685 1 0.475792 0.521913 0.217226
1463 1 0.191289 0.904047 0.465435
1640 1 0.40975 0.900164 0.0224363
736 1 0.120127 0.865368 0.254933
2020 1 0.190905 0.536479 0.208133
2005 1 0.199503 0.661697 0.0645809
166 1 0.246957 0.997547 0.220477
56 1 0.0909824 0.945502 0.251672
699 1 0.465885 0.749141 0.0484657
1619 1 0.408462 0.92883 0.234385
251 1 0.384333 0.806539 0.0248801
1817 1 0.419552 0.728531 0.463819
1803 1 0.0271647 0.537236 0.0629321
104 1 0.291883 0.961083 0.00971751
739 1 0.366302 0.83611 0.345636
808 1 0.216185 0.931316 0.00492995
7 1 0.425659 0.549768 0.389081
1914 1 0.191695 0.628579 0.412784
1730 1 0.0430074 0.572982 0.29288
2040 1 0.0568461 0.988949 0.194038
1898 1 0.427557 0.859644 0.455509
51 1 0.353963 0.996786 0.46895
436 1 0.465911 0.599918 0.111711
74 1 0.4442 0.74795 0.19193
1104 1 0.341992 0.979883 0.164803
162 1 0.119666 0.631877 0.201371
1389 1 0.00275797 0.687518 0.115136
254 1 0.300624 0.590696 0.478921
507 1 0.358387 0.548315 0.181787
1197 1 0.306532 0.799241 0.373855
1499 1 0.0558105 0.739443 0.118098
1728 1 0.205549 0.52311 -0.000651855
1682 1 0.327288 0.847883 0.453868
1826 1 0.353775 0.669252 0.486103
891 1 0.16133 0.678825 0.135701
1111 1 0.2092 0.622916 0.340169
404 1 0.276071 0.953016 0.161564
1954 1 0.339535 0.796198 0.220651
388 1 0.345531 0.766208 0.429213
1601 1 0.413693 0.759328 0.345373
1681 1 0.34999 0.697583 0.404138
48 1 0.418862 0.789998 0.409912
892 1 0.288147 0.671025 0.429926
723 1 0.231701 0.54469 0.0968705
621 1 0.274881 0.577999 0.342313
1641 1 0.336924 0.733664 0.180499
602 1 0.105038 0.73326 0.441571
1935 1 0.411115 0.804722 0.0947236
691 1 0.273848 0.742316 0.427425
1383 1 0.00650061 0.940228 0.481534
1221 1 0.392635 0.850018 0.252223
1777 1 0.264614 0.84316 0.304249
701 1 0.47805 0.820254 0.184936
1239 1 0.314269 0.889977 0.36275
1513 1 0.274442 0.605351 0.274029
1643 1 0.343252 0.670503 0.149657
1172 1 0.313438 0.601991 0.155855
1812 1 0.395269 0.793833 0.496646
2038 1 0.169757 0.9374 0.062341
1037 1 0.16432 0.783675 0.0166843
234 1 0.395601 0.902586 0.386561
1819 1 0.342908 0.512561 0.0360639
1015 1 0.338182 0.558408 0.407406
1981 1 0.450932 0.935362 0.0864341
1646 1 0.397863 0.973403 0.325867
553 1 0.470635 0.645012 0.178825
648 1 0.2934 0.716791 0.498576
1885 1 0.00390041 0.793592 0.152078
865 1 0.274499 0.507957 0.434662
1571 1 0.0325741 0.574972 0.222189
1667 1 0.42629 0.954442 0.173833
1880 1 0.39992 0.610558 0.145341
1932 1 0.176609 0.763318 0.418865
206 1 0.366346 0.787454 0.293924
1133 1 0.468641 0.867651 0.06982
1075 1 0.22489 0.983728 0.0534344
1317 1 0.0698155 0.647783 0.391772
1939 1 0.315941 0.910289 0.0980908
155 1 0.0965024 0.895135 0.469971
1742 1 0.397662 0.634333 0.0522376
531 1 0.326787 0.940038 0.226515
517 1 0.00893807 0.777405 0.464916
1578 1 0.38686 0.623049 0.382946
1609 1 0.090565 0.896349 0.188948
1656 1 0.41462 0.676274 0.229526
1633 1 0.0676393 0.51023 0.247433
587 1 0.42759 0.583499 0.214809
1541 1 0.491268 0.70308 0.340582
961 1 0.124228 0.87187 0.0121551
594 1 0.302886 0.767528 0.115697
1136 1 0.0676449 0.501275 0.328018
1678 1 0.365912 0.917752 0.450745
2026 1 0.277522 0.731921 0.21745
1451 1 0.491317 0.922226 0.189514
1737 1 0.234726 0.828408 0.469428
568 1 0.47967 0.888165 0.390892
1327 1 0.122589 0.890672 0.116987
1702 1 0.428153 0.545017 0.149216
26 1 0.476014 0.638378 0.305547
465 1 0.0114201 0.635205 0.0576257
1417 1 0.106268 0.594288 0.116873
375 1 0.437352 0.961612 0.410174
1485 1 0.27189 0.551391 0.0314853
1078 1 0.0364028 0.753186 0.39085
1056 1 0.431322 0.711676 0.297108
433 1 0.39505 0.620728 0.278608
374 1 0.120948 0.684434 0.0513649
1320 1 0.00590989 0.789949 0.0715206
10 1 0.0600202 0.806262 0.206238
744 1 0.350358 0.520573 0.470555
815 1 0.0440321 0.591409 0.0123733
1916 1 0.0041759 0.97055 0.259397
1219 1 0.0441027 0.996979 0.0356269
1469 1 0.0471785 0.992736 0.318867
1473 1 0.0553984 0.824532 0.497824
899 1 0.126071 0.541352 0.982021
721 1 0.488864 0.52506 0.907378
946 1 0.0497229 0.926648 0.651349
734 1 0.0590516 0.735584 0.581971
98 1 0.386725 0.667944 0.616379
1149 1 0.45783 0.571634 0.852885
616 1 0.147981 0.931669 0.573554
143 1 0.107059 0.992653 0.90411
1746 1 0.143562 0.860037 0.630543
1362 1 0.155045 0.590709 0.544108
319 1 0.486987 0.65153 0.790294
1284 1 0.154028 0.747953 0.846679
73 1 0.278209 0.848008 0.631968
280 1 0.333329 0.820504 0.532421
572 1 0.0292375 0.70003 0.796121
1748 1 0.081441 0.912832 0.782516
1705 1 0.224332 0.911189 0.551263
149 1 0.482962 0.705158 0.507335
355 1 0.402623 0.553388 0.803748
485 1 0.210757 0.683435 0.975562
1359 1 0.25917 0.536183 0.883218
1884 1 0.157146 0.674264 0.731074
1751 1 0.300564 0.651243 0.544132
534 1 0.0849814 0.844069 0.677641
1610 1 0.222304 0.791758 0.616359
1150 1 0.296612 0.899472 0.927829
390 1 0.256064 0.831478 0.908979
993 1 0.398587 0.761831 0.657961
737 1 0.189868 0.9327 0.714279
1761 1 0.425335 0.663374 0.991693
764 1 0.130342 0.834173 0.954227
1339 1 0.478495 0.533207 0.628985
1668 1 0.0932115 0.565142 0.815504
312 1 0.489112 0.779318 0.601861
1315 1 0.320345 0.566255 0.673811
219 1 0.380439 0.608455 0.68323
376 1 0.37243 0.521073 0.656253
619 1 0.0610398 0.862113 0.924841
1956 1 0.267196 0.883578 0.993985
1300 1 0.0193757 0.685939 0.722763
1288 1 0.325314 0.610403 0.611938
1036 1 0.204753 0.895336 0.873861
1357 1 0.145618 0.742156 0.70304
351 1 0.0208485 0.717698 0.937849
1027 1 0.179149 0.908231 0.797818
1693 1 0.0965166 0.922379 0.862464
1509 1 0.44409 0.624845 0.641675
1313 1 0.0445756 0.746675 0.866454
985 1 0.164151 0.760931 0.948954
139 1 0.372714 0.974701 0.93386
204 1 0.179126 0.828292 0.818795
794 1 0.347836 0.669521 0.742194
1835 1 0.343754 0.787116 0.604798
411 1 0.284402 0.778534 0.761747
995 1 0.0441185 0.556184 0.630974
475 1 0.13293 0.615462 0.779841
1082 1 0.000518846 0.789176 0.903485
120 1 0.0551664 0.558671 0.940517
1449 1 0.10218 0.719757 0.903959
386 1 0.426995 0.947414 0.591062
1218 1 0.0640734 0.944563 0.982858
1088 1 0.24917 0.902626 0.761762
1087 1 0.116439 0.859356 0.74579
19 1 0.484524 0.726905 0.964882
1971 1 0.0544759 0.777239 0.717837
635 1 0.348671 0.638976 0.946736
629 1 0.135075 0.924664 0.651105
659 1 0.466749 0.665403 0.57026
1510 1 0.466846 0.728873 0.740764
57 1 0.161693 0.608175 0.966441
787 1 0.0296624 0.903774 0.548909
165 1 0.232033 0.796957 0.988679
611 1 0.190706 0.525889 0.539791
340 1 0.0317436 0.635948 0.948323
632 1 0.292157 0.521924 0.620004
1532 1 0.344241 0.93384 0.876327
1477 1 0.423466 0.921774 0.932273
1904 1 0.145777 0.775941 0.769286
722 1 0.302596 0.767324 0.900857
1909 1 0.368793 0.735564 0.724463
117 1 0.157906 0.677501 0.541449
292 1 0.0835604 0.746799 0.966262
1680 1 0.496728 0.97595 0.992141
1031 1 0.359302 0.568507 0.742632
67 1 0.486418 0.532901 0.989029
1250 1 0.0459577 0.67202 0.877435
601 1 0.124433 0.628516 0.663994
1521 1 0.441409 0.691587 0.909833
303 1 0.0650642 0.716538 0.50056
89 1 0.171617 0.829808 0.893811
700 1 0.077935 0.781477 0.640272
683 1 0.498972 0.656097 0.985623
1697 1 0.0383468 0.855744 0.733496
1041 1 0.2561 0.671501 0.614291
959 1 0.332042 0.810687 0.69561
669 1 0.283801 0.901193 0.84
1365 1 0.234076 0.954625 0.844364
383 1 0.0442443 0.593055 0.875568
779 1 0.203356 0.978418 0.766425
1823 1 0.491697 0.91337 0.718178
994 1 0.265329 0.838652 0.551946
516 1 0.186011 0.740137 0.570972
1309 1 0.364503 0.997453 0.812783
706 1 0.123798 0.669519 0.980242
1861 1 0.136996 0.70175 0.613156
918 1 0.432766 0.635139 0.501225