ITEM: TIMESTEP
100000
ITEM: NUMBER OF ATOMS
2048
ITEM: BOX BOUNDS xy xz yz pp pp pp
-7.0949170598519185e-01 1.1351867295763070e+01 0.0000000000000000e+00
0.0000000000000000e+00 1.2061359001748261e+01 -7.0949170598519185e-01
0.0000000000000000e+00 1.1351867295763070e+01 7.0949170598519185e-01
ITEM: ATOMS id type xs ys zs
6 1 0.131945 0.0608032 0.0599816
9 1 0.254202 0.0540953 0.0601249
15 1 0.070906 0.123233 0.0589003
19 1 0.189677 0.126145 0.0659342
20 1 0.130884 0.18678 0.0662797
24 1 0.249365 0.183534 0.0658563
31 1 0.0654393 0.248104 0.0606426
35 1 0.185621 0.252198 0.063357
36 1 0.128026 0.315738 0.061579
40 1 0.249892 0.306291 0.0656133
47 1 0.0650769 0.377582 0.0598925
51 1 0.193792 0.37405 0.0701048
52 1 0.127203 0.43583 0.0626918
56 1 0.258083 0.431115 0.0645305
65 1 0.0748783 0.0543786 0.124164
67 1 0.193673 0.0539411 0.125109
68 1 0.139196 0.0468871 0.193767
70 1 0.258504 0.0468602 0.189456
74 1 0.0700468 0.184865 0.125647
75 1 0.0796204 0.114874 0.18636
77 1 0.125991 0.121202 0.124454
78 1 0.196956 0.181578 0.128189
79 1 0.195066 0.113788 0.178758
80 1 0.130179 0.180957 0.186884
81 1 0.258305 0.113584 0.130099
84 1 0.260351 0.174052 0.186811
90 1 0.0720221 0.30891 0.121733
91 1 0.066127 0.242562 0.188811
93 1 0.128533 0.246105 0.124704
94 1 0.188906 0.308995 0.125041
95 1 0.196152 0.236206 0.189269
96 1 0.132519 0.309436 0.185568
97 1 0.251954 0.240845 0.124459
100 1 0.258386 0.302226 0.183002
106 1 0.0695454 0.432478 0.125037
107 1 0.0732832 0.36611 0.183471
109 1 0.130791 0.373133 0.121674
110 1 0.201166 0.434003 0.12341
111 1 0.196588 0.363407 0.191102
112 1 0.140431 0.429053 0.182967
113 1 0.262636 0.37158 0.127277
116 1 0.260308 0.430856 0.189055
129 1 0.0758071 0.0463417 0.245321
131 1 0.208499 0.0520638 0.252934
132 1 0.14513 0.0383881 0.312822
134 1 0.271956 0.0430404 0.31782
138 1 0.0813001 0.171642 0.251839
139 1 0.0858087 0.104402 0.31231
140 1 0.0236418 0.172458 0.311661
141 1 0.141291 0.104786 0.251967
142 1 0.19979 0.161739 0.244908
143 1 0.211909 0.106157 0.311192
144 1 0.143586 0.163177 0.312493
145 1 0.27255 0.108831 0.250249
148 1 0.276723 0.171236 0.307607
154 1 0.0770874 0.298767 0.24787
155 1 0.0784567 0.235847 0.312151
156 1 0.0206064 0.297879 0.311974
157 1 0.144041 0.234637 0.254503
158 1 0.201114 0.294353 0.243325
159 1 0.212475 0.225666 0.312567
160 1 0.147891 0.294372 0.309409
161 1 0.26037 0.232466 0.247649
164 1 0.26854 0.288392 0.307239
170 1 0.0786223 0.421386 0.246386
171 1 0.0850924 0.355966 0.311296
173 1 0.136496 0.36123 0.246604
174 1 0.206526 0.422696 0.253371
175 1 0.210601 0.358151 0.311772
176 1 0.146801 0.419314 0.311073
177 1 0.261986 0.358607 0.247966
180 1 0.273559 0.410912 0.313624
186 1 0.084645 0.47672 0.307892
193 1 0.0851578 0.0332929 0.375265
194 1 0.0297233 0.0431359 0.436285
195 1 0.210427 0.0345849 0.374141
196 1 0.149908 0.0328739 0.43916
198 1 0.274118 0.0347407 0.439459
201 1 0.0255331 0.100414 0.371505
202 1 0.0823401 0.163837 0.375918
203 1 0.0900062 0.101446 0.44316
204 1 0.0244468 0.156442 0.438576
205 1 0.145763 0.0924583 0.378583
206 1 0.212221 0.165611 0.37957
207 1 0.213611 0.0978749 0.436015
208 1 0.154156 0.157049 0.437683
209 1 0.272382 0.104352 0.375403
212 1 0.276576 0.153496 0.438915
217 1 0.0218817 0.223274 0.381857
218 1 0.0850837 0.291897 0.371809
219 1 0.0939487 0.227835 0.431235
220 1 0.0255816 0.284446 0.436828
221 1 0.148293 0.229088 0.369371
222 1 0.208697 0.290742 0.369052
223 1 0.217084 0.219959 0.439308
224 1 0.157533 0.287359 0.429021
225 1 0.272228 0.232165 0.374637
228 1 0.278478 0.283398 0.438101
233 1 0.0228462 0.353703 0.374325
234 1 0.0866012 0.414253 0.370273
235 1 0.090815 0.350494 0.432694
236 1 0.0294774 0.411951 0.439235
237 1 0.149875 0.358343 0.377851
238 1 0.216157 0.410832 0.374434
239 1 0.216959 0.344847 0.436299
240 1 0.160027 0.412194 0.439214
241 1 0.274036 0.344875 0.375457
244 1 0.278263 0.413406 0.441155
249 1 0.0259892 0.477615 0.379977
250 1 0.095216 0.470317 0.438508
251 1 0.158722 0.471896 0.376496
252 1 0.220582 0.470178 0.440502
253 1 0.277243 0.474664 0.371915
188 1 0.210446 0.478108 0.314621
130 1 0.0250001 0.0475194 0.31029
172 1 0.0199495 0.416439 0.31167
187 1 0.145812 0.486693 0.247003
185 1 0.023696 0.484913 0.248373
310 1 0.469118 0.40703 0.498568
189 1 0.266729 0.484392 0.255251
137 1 0.0200197 0.11369 0.247978
153 1 0.0134544 0.235478 0.252172
108 1 0.00918221 0.425803 0.187994
169 1 0.0196361 0.363311 0.245801
73 1 0.0141868 0.118349 0.123429
124 1 0.199283 0.490693 0.186448
66 1 0.0148296 0.0556716 0.186859
125 1 0.258575 0.493325 0.122754
1537 1 0.491664 0.496737 0.00213691
53 1 0.243856 0.368854 0.00142679
22 1 0.303798 0.195999 0.00566852
8 1 0.314558 0.0589673 -0.000483611
64 1 0.436671 0.49582 0.0615411
92 1 0.00552754 0.304379 0.18829
122 1 0.0757886 0.49024 0.191147
301 1 0.160035 0.34393 0.497628
32 1 0.00152722 0.307313 0.0641911
127 1 0.381228 0.492788 0.124688
105 1 0.00283275 0.368734 0.127316
89 1 0.00791613 0.243885 0.124465
76 1 0.0112251 0.175721 0.183918
55 1 0.314207 0.370816 0.0612474
121 1 0.00808859 0.495274 0.13464
101 1 0.37889 0.24542 0.12688
39 1 0.317676 0.254354 0.0653912
147 1 0.335154 0.101813 0.315234
61 1 0.0619753 0.497011 0.0599651
1040 1 0.497904 0.187 0.0648534
114 1 0.322511 0.427982 0.126452
136 1 0.398479 0.0322113 0.316756
23 1 0.311449 0.12233 0.0647598
82 1 0.316414 0.179483 0.1285
200 1 0.405958 0.0292402 0.442201
261 1 0.341924 0.0281328 0.497252
133 1 0.327844 0.0415321 0.250977
123 1 0.132992 0.4936 0.122728
243 1 0.339109 0.347561 0.441265
48 1 0.00364726 0.433372 0.0661798
248 1 0.402461 0.407274 0.441963
214 1 0.46028 0.159674 0.375841
246 1 0.46085 0.420039 0.372782
152 1 0.392426 0.165649 0.317131
117 1 0.384544 0.371517 0.124267
247 1 0.459947 0.345602 0.441568
181 1 0.392174 0.356139 0.247267
211 1 0.339359 0.0914185 0.437448
146 1 0.332972 0.17506 0.242277
182 1 0.453102 0.42543 0.249366
168 1 0.394024 0.296161 0.3096
190 1 0.334342 0.481402 0.31246
210 1 0.335 0.163831 0.376716
99 1 0.319598 0.239593 0.182088
118 1 0.443768 0.43578 0.126077
165 1 0.393821 0.233737 0.255067
166 1 0.451265 0.292839 0.252863
245 1 0.3948 0.358187 0.372942
83 1 0.323328 0.109783 0.190435
115 1 0.326023 0.362606 0.18755
104 1 0.386625 0.299914 0.187995
60 1 0.37482 0.433204 0.0602082
232 1 0.400969 0.285778 0.435053
88 1 0.385135 0.176509 0.182751
44 1 0.37556 0.311383 0.0556984
69 1 0.321991 0.0544061 0.124517
191 1 0.389287 0.488144 0.251222
103 1 0.446232 0.24084 0.185792
126 1 0.32339 0.491892 0.188121
43 1 0.438022 0.25276 0.0620485
216 1 0.400462 0.151763 0.437936
98 1 0.325301 0.310237 0.127743
227 1 0.340906 0.225663 0.432214
27 1 0.43856 0.124625 0.0667547
28 1 0.37695 0.187258 0.0681312
255 1 0.397831 0.483705 0.374088
215 1 0.468409 0.098614 0.436473
192 1 0.458089 0.478853 0.310811
85 1 0.379862 0.117485 0.128317
71 1 0.442319 0.0572668 0.126527
179 1 0.331633 0.35158 0.311901
135 1 0.449626 0.045511 0.250389
162 1 0.329231 0.293865 0.249071
231 1 0.463815 0.221459 0.446414
12 1 0.380956 0.0575565 0.0667007
150 1 0.454978 0.1765 0.247256
119 1 0.446211 0.365323 0.184683
199 1 0.458613 0.0312852 0.377441
167 1 0.456183 0.226563 0.314611
72 1 0.383163 0.0511355 0.189403
86 1 0.445296 0.181919 0.131376
149 1 0.391019 0.10692 0.252143
59 1 0.44585 0.375926 0.0638732
120 1 0.386365 0.432291 0.19546
230 1 0.461814 0.292334 0.374133
229 1 0.401566 0.225606 0.375484
183 1 0.455454 0.360641 0.316081
197 1 0.336623 0.0361038 0.37491
256 1 0.458877 0.471232 0.435312
102 1 0.443076 0.307912 0.126345
254 1 0.345737 0.471558 0.436354
213 1 0.393407 0.0944137 0.377664
178 1 0.327161 0.425199 0.252864
184 1 0.389043 0.415818 0.3092
163 1 0.332752 0.234285 0.30991
87 1 0.444388 0.110861 0.192193
226 1 0.339719 0.293638 0.375794
151 1 0.450602 0.103487 0.317853
128 1 0.453287 0.49243 0.188279
242 1 0.333856 0.413258 0.377364
25 1 0.372131 0.124247 0.00377582
62 1 0.197625 0.494803 0.0626338
289 1 0.283997 0.214749 0.496558
297 1 0.0318277 0.347271 0.4933
277 1 0.401102 0.09361 0.500444
46 1 0.0591751 0.442534 0.00210445
3 1 0.00888712 0.0604907 0.0609033
34 1 0.182848 0.313214 0.00262696
16 1 0.0100207 0.181644 0.0593348
266 1 0.0920003 0.160962 0.494995
257 1 0.0957008 0.0328907 0.497751
5 1 0.191008 0.0631013 -0.00192695
281 1 0.0272551 0.213526 0.49574
319 1 0.406188 0.47373 0.500316
285 1 0.153193 0.21705 0.500909
282 1 0.0917125 0.286869 0.491925
313 1 0.0405966 0.467027 0.498563
1053 1 0.498434 0.252679 0.00290841
1025 1 0.497476 0.0027075 0.00434276
2 1 0.060462 0.0646772 0.000659519
1069 1 0.499708 0.369593 -0.00067647
14 1 0.0678565 0.186748 0.000400243
278 1 0.465484 0.15231 0.498297
293 1 0.402616 0.212439 0.497271
306 1 0.34412 0.406876 0.499341
26 1 0.436036 0.187871 0.0110822
30 1 0.0569606 0.308927 0.00249399
50 1 0.192299 0.436545 0.00129339
298 1 0.0983063 0.4041 0.494334
18 1 0.18783 0.187221 0.00409753
11 1 0.431922 0.0648408 0.00270434
375 1 0.476842 0.331738 0.695254
258 1 0.0334886 0.025969 0.561997
324 1 0.166893 0.0224166 0.691341
260 1 0.157468 0.028396 0.562995
328 1 0.420312 0.0221893 0.687294
262 1 0.28896 0.0252293 0.561974
38 1 0.307407 0.313554 1.0008
264 1 0.413214 0.0279713 0.561406
57 1 0.379321 0.374477 0.995978
453 1 0.372305 0.00976612 0.872224
267 1 0.0978358 0.0863312 0.555599
268 1 0.0426403 0.152935 0.560349
510 1 0.374042 0.441757 0.931456
386 1 0.0435336 0.00746352 0.817215
271 1 0.22153 0.0894519 0.564718
272 1 0.157503 0.151524 0.554909
41 1 0.369143 0.246946 0.995198
502 1 0.493762 0.384789 0.878425
275 1 0.348414 0.0882996 0.565788
276 1 0.284681 0.148403 0.564252
509 1 0.307396 0.446007 0.871619
406 1 0.479047 0.139258 0.74676
279 1 0.47411 0.0862108 0.562407
280 1 0.411501 0.154616 0.560352
508 1 0.24288 0.443822 0.940058
507 1 0.188297 0.440313 0.874631
283 1 0.0956626 0.214661 0.558731
284 1 0.0335567 0.276829 0.55687
506 1 0.121699 0.440984 0.939573
448 1 0.489624 0.448429 0.810261
287 1 0.219052 0.211953 0.558387
288 1 0.151757 0.27993 0.555769
505 1 0.0566874 0.444287 0.876014
504 1 0.434783 0.380411 0.932035
291 1 0.34483 0.214344 0.563446
292 1 0.28111 0.274845 0.554884
290 1 0.346891 0.279576 0.500108
390 1 0.305159 0.0122914 0.80801
295 1 0.477073 0.213919 0.556998
296 1 0.411557 0.275886 0.565622
511 1 0.434233 0.451522 0.874776
452 1 0.184557 0.00433989 0.9384
299 1 0.0960058 0.343395 0.556986
300 1 0.0359541 0.40387 0.5551
449 1 0.115359 0.0117384 0.868659
501 1 0.427333 0.31913 0.874327
303 1 0.228018 0.339533 0.563272
304 1 0.170364 0.39974 0.562287
500 1 0.30986 0.383995 0.941564
499 1 0.374431 0.318623 0.936457
307 1 0.346682 0.340332 0.567454
308 1 0.288107 0.403442 0.563062
498 1 0.373534 0.387172 0.868827
49 1 0.123804 0.376142 0.999705
311 1 0.476054 0.338643 0.561684
312 1 0.417302 0.404035 0.562915
512 1 0.497158 0.440347 0.936191
314 1 0.0985301 0.463851 0.56264
497 1 0.304064 0.318177 0.880864
316 1 0.223212 0.466613 0.56144
388 1 0.179239 0.0115451 0.815885
318 1 0.35382 0.45673 0.561221
392 1 0.423607 0.00993665 0.81029
320 1 0.474227 0.467147 0.565566
321 1 0.100569 0.0228558 0.625616
322 1 0.0467238 0.0178237 0.688792
323 1 0.224529 0.0256868 0.624902
454 1 0.308474 0.00318449 0.939918
325 1 0.350932 0.0279079 0.627161
326 1 0.295177 0.0170552 0.690889
327 1 0.479916 0.0196753 0.621031
451 1 0.239241 0.0120556 0.878341
329 1 0.0406115 0.0932199 0.626541
330 1 0.104087 0.146917 0.624027
331 1 0.103772 0.0857742 0.688594
332 1 0.038705 0.151316 0.688525
333 1 0.156723 0.0819832 0.62579
334 1 0.221204 0.151601 0.623358
335 1 0.228004 0.0893725 0.68348
336 1 0.164425 0.148027 0.685565
337 1 0.286925 0.0837281 0.627187
338 1 0.347979 0.145898 0.627342
339 1 0.354849 0.0826664 0.690173
340 1 0.287431 0.1452 0.681582
341 1 0.414897 0.0855817 0.621142
342 1 0.478374 0.148988 0.623726
309 1 0.408026 0.343452 0.506554
344 1 0.41824 0.146888 0.679431
345 1 0.039527 0.207489 0.621735
346 1 0.0958285 0.282422 0.61716
347 1 0.105332 0.216306 0.682206
348 1 0.0368149 0.2776 0.682613
349 1 0.159398 0.218375 0.620369
350 1 0.223693 0.273526 0.614931
351 1 0.230079 0.214753 0.688856
352 1 0.168938 0.271596 0.685017
353 1 0.28678 0.209603 0.625154
354 1 0.360721 0.271454 0.627734
355 1 0.357342 0.210447 0.69024
356 1 0.296591 0.270124 0.685594
357 1 0.420201 0.206974 0.622687
358 1 0.474322 0.272286 0.630694
286 1 0.212222 0.277894 0.500768
360 1 0.423713 0.268588 0.690151
361 1 0.0396105 0.338526 0.615312
362 1 0.0986785 0.398534 0.622423
363 1 0.10262 0.333109 0.683645
364 1 0.0405094 0.39866 0.684084
365 1 0.165805 0.336023 0.622694
366 1 0.233939 0.401643 0.626291
367 1 0.231576 0.331722 0.68249
368 1 0.165891 0.388153 0.684115
369 1 0.290374 0.331649 0.624786
370 1 0.359295 0.398005 0.626125
371 1 0.357502 0.335745 0.686079
372 1 0.295108 0.396052 0.691224
373 1 0.420253 0.338497 0.621286
374 1 0.477301 0.401764 0.628546
274 1 0.338238 0.152608 0.500176
376 1 0.419113 0.393343 0.693368
377 1 0.0362275 0.459555 0.622138
378 1 0.112513 0.450952 0.688994
379 1 0.162802 0.452465 0.622035
380 1 0.231347 0.45303 0.686775
381 1 0.291691 0.458736 0.626845
382 1 0.359178 0.454203 0.687404
383 1 0.417987 0.460648 0.625584
384 1 0.481313 0.457362 0.691185
387 1 0.22915 0.0205491 0.751537
486 1 0.49317 0.259171 0.875721
422 1 0.485564 0.266185 0.752544
491 1 0.125216 0.313995 0.939613
407 1 0.485928 0.0725128 0.813568
492 1 0.0572465 0.374977 0.939535
503 1 0.491917 0.313692 0.936347
439 1 0.487806 0.323444 0.811673
393 1 0.0429496 0.0775624 0.746437
394 1 0.111467 0.143081 0.751698
395 1 0.113887 0.0778274 0.810873
396 1 0.0528328 0.142609 0.811414
397 1 0.170877 0.0787328 0.748129
398 1 0.232134 0.14221 0.742399
399 1 0.237204 0.0717767 0.814874
400 1 0.182916 0.133971 0.813565
401 1 0.296576 0.0751638 0.746628
402 1 0.36652 0.142671 0.746484
403 1 0.366074 0.0782696 0.810422
404 1 0.295649 0.133858 0.808196
405 1 0.423872 0.0769652 0.75143
455 1 0.491939 -0.000392573 0.874169
269 1 0.159262 0.0935116 0.499178
408 1 0.42411 0.136988 0.809932
409 1 0.0496085 0.204814 0.747267
410 1 0.110869 0.267705 0.750212
411 1 0.115214 0.199704 0.81241
412 1 0.0541004 0.258752 0.8146
413 1 0.170567 0.205296 0.751288
414 1 0.234372 0.272444 0.749459
415 1 0.237598 0.203011 0.811207
416 1 0.174158 0.260611 0.812531
417 1 0.294149 0.198379 0.751988
418 1 0.351521 0.262142 0.752507
419 1 0.35868 0.193074 0.812301
420 1 0.30361 0.258799 0.821764
421 1 0.417814 0.204886 0.754468
389 1 0.364439 0.0135882 0.74993
485 1 0.426739 0.195955 0.874639
424 1 0.423092 0.258258 0.814364
425 1 0.0473585 0.328292 0.749354
426 1 0.115488 0.385897 0.749473
427 1 0.112286 0.32232 0.818366
428 1 0.0498757 0.385153 0.819443
429 1 0.174048 0.328196 0.749129
430 1 0.236602 0.386422 0.75001
431 1 0.240258 0.322792 0.821036
432 1 0.177598 0.381892 0.810278
433 1 0.299073 0.334239 0.752975
434 1 0.361499 0.389487 0.749337
435 1 0.361052 0.320559 0.817141
436 1 0.298037 0.383455 0.813828
437 1 0.416072 0.324848 0.754659
359 1 0.482588 0.202501 0.6888
385 1 0.105318 0.0143998 0.75178
440 1 0.432511 0.386855 0.815516
441 1 0.0508587 0.446627 0.745561
442 1 0.111712 0.449201 0.810739
443 1 0.173491 0.448642 0.749393
444 1 0.238302 0.444021 0.814498
445 1 0.295028 0.450691 0.754878
446 1 0.363886 0.454376 0.808608
447 1 0.42221 0.45294 0.753543
456 1 0.433928 0.00491848 0.940623
343 1 0.475067 0.0821417 0.687517
484 1 0.307353 0.248577 0.934898
489 1 0.0569917 0.318168 0.878728
494 1 0.250814 0.382462 0.877224
490 1 0.116101 0.382361 0.87517
423 1 0.486463 0.201638 0.818845
488 1 0.435083 0.253254 0.935409
493 1 0.178967 0.321721 0.877478
457 1 0.0527746 0.0689368 0.873029
458 1 0.12073 0.133143 0.87141
459 1 0.124412 0.0672821 0.935475
460 1 0.06228 0.130526 0.938278
461 1 0.175646 0.0710287 0.872558
462 1 0.24386 0.124145 0.881254
463 1 0.249692 0.0652466 0.942486
464 1 0.182051 0.127509 0.942287
465 1 0.308527 0.0692109 0.874778
466 1 0.371333 0.131041 0.878873
467 1 0.370234 0.0680055 0.940341
468 1 0.310936 0.132366 0.938044
469 1 0.428684 0.0697048 0.871126
496 1 0.18002 0.379361 0.938138
495 1 0.242717 0.313099 0.934745
472 1 0.436114 0.128235 0.941042
473 1 0.0566215 0.197219 0.874284
474 1 0.120368 0.252965 0.872576
475 1 0.122903 0.187449 0.93449
476 1 0.0644618 0.253279 0.938225
477 1 0.178799 0.196801 0.872685
478 1 0.2445 0.255122 0.879131
479 1 0.239999 0.190463 0.938458
480 1 0.179119 0.253212 0.93706
481 1 0.302019 0.189132 0.875119
482 1 0.366652 0.255669 0.880872
483 1 0.373687 0.187323 0.937569
391 1 0.484686 0.0185238 0.74863
450 1 0.062483 0.00650777 0.936227
438 1 0.490575 0.391242 0.75109
315 1 0.156325 0.471083 0.498085
522 1 0.376318 0.497335 0.997201
294 1 0.468566 0.281074 0.501741
259 1 0.21778 0.0297096 0.503958
317 1 0.288054 0.469524 0.503923
42 1 0.439533 0.312467 1.00011
470 1 0.487718 0.130537 0.875862
10 1 0.375003 8.47663e-05 0.997536
33 1 0.127259 0.246403 0.998029
516 1 0.124015 0.493551 0.998617
4 1 0.126244 0.00678449 0.993294
270 1 0.218882 0.155536 0.501636
273 1 0.276628 0.093091 0.50169
58 1 0.434039 0.433787 0.994571
263 1 0.473132 0.0241828 0.502251
17 1 0.126881 0.121633 0.998492
305 1 0.282929 0.33998 0.500836
54 1 0.310834 0.442554 0.997319
265 1 0.0310965 0.0974857 0.503287
21 1 0.249339 0.124891 0.9957
302 1 0.222211 0.40583 0.505396
37 1 0.244764 0.249724 0.992219
518 1 0.124879 0.564451 0.0622253
521 1 0.255434 0.560489 0.0585867
527 1 0.0599702 0.621414 0.0646081
531 1 0.193073 0.623156 0.0630204
532 1 0.124105 0.680262 0.0629465
536 1 0.253234 0.680703 0.0576284
543 1 0.0645593 0.742497 0.0678102
547 1 0.183859 0.741362 0.0671144
548 1 0.118514 0.80377 0.0683328
552 1 0.254307 0.800928 0.0563676
559 1 0.0644434 0.872854 0.0670122
563 1 0.18994 0.872318 0.0656394
564 1 0.125762 0.937838 0.0576063
568 1 0.256728 0.929251 0.061989
577 1 0.0703197 0.55631 0.126785
579 1 0.196513 0.555439 0.121474
580 1 0.136433 0.553311 0.186847
582 1 0.262881 0.551077 0.186721
586 1 0.0666524 0.675484 0.133278
587 1 0.0664993 0.612691 0.194182
589 1 0.132884 0.624404 0.126978
590 1 0.194588 0.680014 0.126012
591 1 0.20102 0.612415 0.182721
592 1 0.13109 0.676743 0.190512
593 1 0.256727 0.618148 0.123569
596 1 0.263899 0.671316 0.187731
602 1 0.0636767 0.809249 0.132099
603 1 0.0705741 0.74195 0.192931
605 1 0.12948 0.737784 0.12787
606 1 0.197899 0.804986 0.118735
607 1 0.198301 0.735444 0.190339
608 1 0.134102 0.806711 0.186684
609 1 0.258777 0.738222 0.122104
612 1 0.263842 0.803184 0.18757
618 1 0.072035 0.928621 0.129625
619 1 0.0733358 0.861487 0.194729
621 1 0.130529 0.869668 0.120479
622 1 0.197947 0.929006 0.124372
623 1 0.201765 0.86584 0.186196
624 1 0.134021 0.921749 0.189817
625 1 0.256012 0.864544 0.12431
628 1 0.260309 0.92859 0.190982
641 1 0.0813849 0.546592 0.255095
642 1 0.019374 0.532946 0.315244
643 1 0.203757 0.546195 0.250636
644 1 0.144954 0.535234 0.314219
646 1 0.271524 0.543745 0.308164
650 1 0.0742346 0.67403 0.251474
651 1 0.0837667 0.603602 0.316088
653 1 0.140113 0.606621 0.24566
654 1 0.200802 0.674104 0.246299
655 1 0.203724 0.603912 0.309743
656 1 0.148647 0.669987 0.312596
657 1 0.261901 0.606722 0.246443
660 1 0.271331 0.667387 0.309155
666 1 0.0778962 0.795153 0.253118
667 1 0.0810508 0.732688 0.314874
668 1 0.0199541 0.791707 0.312586
669 1 0.141206 0.734447 0.249735
670 1 0.203053 0.797763 0.248669
671 1 0.208261 0.73519 0.312318
672 1 0.1439 0.790937 0.311447
673 1 0.267451 0.734005 0.246808
676 1 0.269422 0.793234 0.315172
682 1 0.0785905 0.924666 0.251138
683 1 0.0820617 0.863252 0.315269
685 1 0.139173 0.855034 0.253241
686 1 0.202244 0.916256 0.250963
687 1 0.20877 0.854156 0.31087
688 1 0.147254 0.91426 0.312393
689 1 0.266751 0.862629 0.248795
692 1 0.262761 0.916485 0.313916
700 1 0.204201 0.979062 0.311564
705 1 0.0891164 0.538127 0.376239
706 1 0.0380107 0.535211 0.439899
707 1 0.21574 0.535851 0.377893
708 1 0.153996 0.536447 0.436705
710 1 0.280411 0.530357 0.441275
713 1 0.0271782 0.604164 0.37268
714 1 0.087258 0.670796 0.377949
715 1 0.0947449 0.597315 0.434298
716 1 0.0276488 0.655353 0.440274
717 1 0.152334 0.597648 0.371149
718 1 0.213757 0.659491 0.370733
719 1 0.218143 0.595791 0.439242
720 1 0.154884 0.662024 0.436266
721 1 0.276006 0.604386 0.377378
724 1 0.280199 0.661716 0.43875
729 1 0.0253445 0.725773 0.379088
730 1 0.0838894 0.794587 0.368392
731 1 0.0928162 0.722931 0.439232
732 1 0.0386989 0.785917 0.437399
733 1 0.152404 0.726812 0.372325
734 1 0.208944 0.791228 0.375513
735 1 0.219936 0.721892 0.441735
736 1 0.150081 0.78169 0.438386
737 1 0.27416 0.726952 0.377303
740 1 0.281445 0.781075 0.4393
745 1 0.0229355 0.855347 0.376454
746 1 0.0827143 0.916916 0.37645
747 1 0.0939435 0.85047 0.438067
748 1 0.0242557 0.909485 0.441616
749 1 0.149594 0.853195 0.378352
750 1 0.211085 0.913666 0.379849
751 1 0.216185 0.843132 0.439592
752 1 0.152766 0.910291 0.438763
753 1 0.273568 0.853558 0.372713
756 1 0.273922 0.910192 0.438651
761 1 0.0179204 0.97507 0.38347
762 1 0.0884107 0.96919 0.442539
763 1 0.147395 0.973692 0.371615
764 1 0.211387 0.974049 0.437711
765 1 0.274392 0.977251 0.382967
652 1 0.0234227 0.66696 0.314797
684 1 0.0187068 0.920171 0.317588
698 1 0.0816367 0.98006 0.308143
665 1 0.0160028 0.732108 0.254716
649 1 0.0177346 0.608343 0.257512
681 1 0.0185749 0.864651 0.257279
697 1 0.0149621 0.981916 0.250772
701 1 0.261871 0.987755 0.251902
578 1 0.0127917 0.554504 0.191127
699 1 0.140983 0.985048 0.252201
576 1 0.443083 0.995969 0.0680503
634 1 0.0778071 0.991429 0.188376
636 1 0.194171 0.983925 0.186674
588 1 0.00483846 0.675424 0.192347
541 1 0.00799228 0.750445 0.00101805
63 1 0.314623 0.499635 0.0622306
1584 1 0.50024 0.93575 0.0632843
565 1 0.254341 0.873121 0.00192346
604 1 0.00610984 0.810521 0.190298
544 1 0.0078764 0.813328 0.0597468
530 1 0.187408 0.692612 0.000203035
620 1 0.00812327 0.92693 0.190485
810 1 0.0940188 0.904517 0.500301
574 1 0.187395 0.998296 0.0600087
639 1 0.385161 0.992915 0.124858
546 1 0.182402 0.814504 0.00330389
573 1 0.069904 0.99998 0.0554758
789 1 0.410148 0.595296 0.495182
635 1 0.132898 0.993623 0.125131
569 1 0.376704 0.873833 0.000342408
575 1 0.317218 0.99264 0.061795
551 1 0.315644 0.746247 0.0562836
806 1 0.474591 0.781845 0.500249
818 1 0.348104 0.902738 0.498048
1581 1 0.497403 0.876482 -0.000542319
695 1 0.456332 0.855316 0.316553
664 1 0.398699 0.66921 0.31038
599 1 0.44626 0.611844 0.183457
585 1 0.00959047 0.613038 0.125209
739 1 0.34316 0.722858 0.436379
601 1 0.0051613 0.740154 0.130357
755 1 0.341668 0.838545 0.438703
738 1 0.339016 0.787784 0.372022
598 1 0.443412 0.676216 0.127496
581 1 0.321926 0.558145 0.123529
632 1 0.380883 0.933547 0.1875
556 1 0.38505 0.809128 0.0634901
726 1 0.460389 0.666093 0.378289
760 1 0.406028 0.908817 0.439634
571 1 0.440883 0.877168 0.0638095
637 1 0.25773 0.992839 0.129413
677 1 0.383554 0.733942 0.244753
617 1 0.00714062 0.872372 0.12647
638 1 0.322334 0.991763 0.186787
661 1 0.393338 0.607661 0.250142
754 1 0.338022 0.912267 0.38203
693 1 0.392538 0.865814 0.244295
663 1 0.458637 0.603325 0.307552
630 1 0.447544 0.931628 0.127054
691 1 0.326958 0.856438 0.313861
679 1 0.453511 0.732263 0.311376
572 1 0.375477 0.932536 0.066353
678 1 0.447435 0.795823 0.247415
722 1 0.333055 0.663928 0.372681
539 1 0.441856 0.622865 0.059883
709 1 0.333972 0.541487 0.369508
659 1 0.330253 0.606636 0.311942
768 1 0.469651 0.965324 0.437148
725 1 0.392198 0.603203 0.369569
723 1 0.342719 0.601128 0.438592
615 1 0.446025 0.733737 0.191181
584 1 0.383129 0.549648 0.188978
757 1 0.396628 0.849666 0.375866
629 1 0.386194 0.867577 0.123701
535 1 0.318261 0.617341 0.0593626
711 1 0.460451 0.541511 0.371037
675 1 0.335551 0.725618 0.310951
524 1 0.377117 0.554846 0.0599208
626 1 0.31833 0.924563 0.125388
567 1 0.319768 0.874615 0.0570678
611 1 0.322616 0.742422 0.179975
595 1 0.327529 0.611534 0.187838
600 1 0.384757 0.674172 0.184214
647 1 0.456408 0.549456 0.243537
627 1 0.322603 0.862946 0.187608
741 1 0.398411 0.724484 0.372638
540 1 0.374851 0.683424 0.0662059
583 1 0.444222 0.549997 0.121722
759 1 0.463456 0.846462 0.434851
555 1 0.439905 0.739105 0.061554
694 1 0.450148 0.920899 0.244537
703 1 0.385294 0.985917 0.250262
767 1 0.397325 0.968872 0.376536
597 1 0.386037 0.610569 0.120609
704 1 0.458409 0.973766 0.306484
696 1 0.392225 0.918217 0.314761
658 1 0.333408 0.668516 0.249406
594 1 0.314772 0.675 0.121001
645 1 0.328336 0.548642 0.251962
702 1 0.323987 0.972641 0.316195
610 1 0.315901 0.812406 0.120113
727 1 0.458194 0.598318 0.431872
758 1 0.464242 0.910909 0.376063
648 1 0.397351 0.548146 0.31215
680 1 0.396936 0.792851 0.313581
690 1 0.325987 0.920698 0.250291
662 1 0.451835 0.671714 0.253506
742 1 0.459784 0.789072 0.377354
674 1 0.326081 0.795274 0.254797
614 1 0.444945 0.79898 0.130442
766 1 0.343532 0.971699 0.440696
743 1 0.467232 0.723823 0.434649
613 1 0.379683 0.743676 0.119507
712 1 0.399805 0.537521 0.43493
744 1 0.405983 0.785502 0.433399
728 1 0.40201 0.664672 0.434401
640 1 0.44786 0.989959 0.189248
631 1 0.448957 0.862078 0.18397
616 1 0.386087 0.797745 0.184948
633 1 0.0155309 0.996179 0.120961
542 1 0.065257 0.815443 -0.00021137
827 1 0.157197 0.966357 0.498926
514 1 0.0661987 0.566229 0.00181381
560 1 0.00776801 0.938309 0.0618675
526 1 0.0601468 0.68076 0.00261544
793 1 0.0317687 0.717059 0.49671
814 1 0.218278 0.901552 0.49918
545 1 0.122981 0.746299 0.00619592
515 1 0.00285327 0.559681 0.0625938
529 1 0.125482 0.628824 0.00111128
821 1 0.408928 0.837921 0.496135
523 1 0.433445 0.564954 0.00238639
7 1 0.250305 0.996234 0.00114399
553 1 0.37838 0.751249 0.00213796
562 1 0.188659 0.935341 0.00499103
517 1 0.183569 0.55817 0.00535776
785 1 0.284775 0.594856 0.499388
813 1 0.15845 0.843243 0.495736
570 1 0.433904 0.940588 0.00574729
778 1 0.100779 0.654584 0.497857
951 1 0.487736 0.824386 0.813967
770 1 0.0392462 0.526925 0.562595
1014 1 0.494408 0.880818 0.877026
772 1 0.164573 0.522479 0.567326
966 1 0.305624 0.506406 0.93834
774 1 0.29131 0.528824 0.559575
1021 1 0.305155 0.951955 0.876824
776 1 0.412812 0.52672 0.561319
1020 1 0.239701 0.941525 0.935688
840 1 0.420257 0.520496 0.68992
779 1 0.100128 0.591124 0.56655
780 1 0.0395388 0.654284 0.557087
998 1 0.489374 0.76025 0.872539
1019 1 0.177487 0.952652 0.873384
783 1 0.228464 0.590653 0.56519
784 1 0.166658 0.652905 0.559756
1018 1 0.127639 0.942259 0.939846
1017 1 0.0554004 0.943883 0.879279
787 1 0.353627 0.59304 0.561356
788 1 0.294729 0.655135 0.562985
809 1 0.0291007 0.840207 0.500926
899 1 0.235133 0.511598 0.754748
791 1 0.465918 0.594033 0.558626
792 1 0.414215 0.661715 0.568869
950 1 0.480445 0.893376 0.754195
1016 1 0.43517 0.87946 0.939232
795 1 0.104379 0.715075 0.56501
796 1 0.0398353 0.780389 0.56594
834 1 0.0460503 0.521446 0.68662
898 1 0.0547935 0.510725 0.811667
799 1 0.228621 0.711591 0.56361
800 1 0.163724 0.776933 0.567055
897 1 0.112469 0.513974 0.745573
1013 1 0.429932 0.822029 0.870286
803 1 0.351323 0.718093 0.563673
804 1 0.292105 0.778006 0.568382
918 1 0.482761 0.639934 0.752101
1012 1 0.305542 0.882878 0.937647
807 1 0.479451 0.722962 0.567206
808 1 0.411796 0.776248 0.564912
896 1 0.480114 0.959318 0.687362
1011 1 0.372326 0.821827 0.932607
811 1 0.106203 0.840614 0.561962
812 1 0.0319356 0.904044 0.56506
963 1 0.244409 0.505957 0.873711
1010 1 0.368784 0.88277 0.874656
815 1 0.224089 0.841327 0.563904
816 1 0.161368 0.903386 0.560998
838 1 0.293674 0.507864 0.690349
871 1 0.4779 0.707 0.693339
819 1 0.349406 0.844875 0.566127
820 1 0.284516 0.901496 0.563066
1009 1 0.304091 0.820571 0.870357
554 1 0.439372 0.80848 0.994823
823 1 0.477803 0.836103 0.562908
824 1 0.411905 0.90064 0.566574
1008 1 0.182518 0.875244 0.93788
826 1 0.0951085 0.959939 0.562272
1004 1 0.0523325 0.877818 0.940123
828 1 0.2175 0.964642 0.560501
1007 1 0.246743 0.817603 0.9333
830 1 0.344975 0.962614 0.558522
1006 1 0.240305 0.887116 0.872588
832 1 0.47857 0.961852 0.563385
833 1 0.102541 0.520392 0.623529
1015 1 0.494706 0.818616 0.934917
835 1 0.234676 0.525534 0.623888
836 1 0.171794 0.517581 0.681168
837 1 0.351462 0.525557 0.625667
831 1 0.41163 0.965651 0.50237
839 1 0.479997 0.523076 0.630015
904 1 0.427244 0.509661 0.809503
841 1 0.0376767 0.589209 0.620527
842 1 0.0962023 0.651328 0.6201
843 1 0.105559 0.583794 0.683134
844 1 0.0433785 0.642584 0.682287
845 1 0.171199 0.591835 0.625266
846 1 0.232778 0.650885 0.625664
847 1 0.229756 0.578689 0.688277
848 1 0.158541 0.64569 0.686103
849 1 0.290551 0.588735 0.622667
850 1 0.359785 0.651196 0.627191
851 1 0.351305 0.579144 0.684878
852 1 0.294754 0.643415 0.687941
853 1 0.417775 0.584334 0.627182
854 1 0.476988 0.648754 0.624373
534 1 0.320344 0.690779 0.996516
856 1 0.423915 0.642576 0.684615
857 1 0.0371013 0.711935 0.623214
858 1 0.0965546 0.774239 0.629417
859 1 0.102858 0.70947 0.693716
860 1 0.0361828 0.76868 0.689809
861 1 0.161537 0.714238 0.627008
862 1 0.233975 0.766601 0.629787
863 1 0.228331 0.704922 0.693089
864 1 0.162374 0.769295 0.691508
865 1 0.296516 0.709431 0.622412
866 1 0.352302 0.773755 0.632549
867 1 0.356594 0.702973 0.69261
868 1 0.29312 0.775763 0.691231
869 1 0.416314 0.712322 0.630707
870 1 0.477786 0.778786 0.631281
960 1 0.486094 0.95102 0.809688
872 1 0.42107 0.769434 0.688498
873 1 0.0397335 0.836385 0.628858
874 1 0.0990255 0.901948 0.628678
875 1 0.104596 0.830771 0.690369
876 1 0.0425335 0.893451 0.691637
877 1 0.166562 0.843643 0.626728
878 1 0.229232 0.900428 0.62705
879 1 0.232444 0.835188 0.686767
880 1 0.16703 0.899839 0.691885
881 1 0.295065 0.840652 0.630041
882 1 0.352255 0.90571 0.624239
883 1 0.356324 0.836125 0.689047
884 1 0.297634 0.903038 0.689709
885 1 0.412164 0.835728 0.623878
886 1 0.473922 0.895035 0.6314
782 1 0.224854 0.655141 0.498972
888 1 0.423113 0.893654 0.690939
889 1 0.036749 0.965167 0.621253
890 1 0.103333 0.955787 0.690492
891 1 0.170692 0.959076 0.623666
892 1 0.232388 0.963839 0.683772
893 1 0.291601 0.964142 0.624066
894 1 0.362031 0.957295 0.689394
895 1 0.415438 0.966955 0.622029
903 1 0.491577 0.515457 0.749915
822 1 0.468662 0.899403 0.504431
934 1 0.481554 0.765448 0.760026
935 1 0.494176 0.69149 0.821535
1003 1 0.123862 0.809052 0.941545