ITEM: TIMESTEP
100000
ITEM: NUMBER OF ATOMS
2048
ITEM: BOX BOUNDS xy xz yz pp pp pp
-8.5498797333834842e-01 1.3679807573413575e+01 0.0000000000000000e+00
0.0000000000000000e+00 1.4534795546751923e+01 -8.5498797333834842e-01
0.0000000000000000e+00 1.3679807573413575e+01 8.5498797333834842e-01
ITEM: ATOMS id type xs ys zs
379 1 0.349059 0.290053 0.0597503
622 1 0.181774 0.226249 0.0365924
1646 1 0.249638 0.0484696 0.171272
1108 1 0.153 0.169476 0.155393
397 1 0.167868 0.384131 0.0660187
231 1 0.300573 0.146993 0.307187
634 1 0.393409 0.423814 0.164841
940 1 0.107205 0.040088 0.164381
1325 1 0.060739 0.177404 0.252161
1897 1 0.403621 0.295683 0.102748
1664 1 0.188945 0.456113 0.174056
1985 1 0.0788358 0.252707 0.483997
1901 1 0.42086 0.138563 0.243987
786 1 0.0209779 0.455625 0.384683
1496 1 0.241246 0.116426 0.144072
230 1 0.130442 0.321681 0.363679
347 1 0.204926 0.447162 0.420254
1676 1 0.315936 0.367674 0.0294387
602 1 0.0589727 0.136849 0.314895
43 1 0.267363 0.135802 0.45692
1711 1 0.200672 0.202127 0.284178
889 1 0.306811 0.0776455 0.123959
614 1 0.101405 0.216735 0.141016
1550 1 0.343514 0.387173 0.198793
917 1 0.0356805 0.41012 0.447115
1790 1 0.239671 0.0118506 0.472521
461 1 0.442141 0.420352 0.0625216
503 1 0.338412 0.46039 0.24244
168 1 0.498467 0.346495 0.0370061
717 1 0.494755 0.358401 0.445913
1993 1 0.178868 0.0756238 0.193973
1570 1 0.491716 0.227442 0.273107
753 1 0.139163 0.105972 0.428051
437 1 0.0958128 0.0957079 0.0865816
2027 1 0.491031 0.0627564 0.0768959
1015 1 0.182987 0.309179 0.0977141
1590 1 0.0218953 0.168312 0.180566
434 1 0.238915 0.329382 0.427759
1519 1 0.370115 0.345062 0.425818
660 1 0.456102 0.0721544 0.359378
366 1 0.252316 0.399329 0.0158741
1271 1 0.0500353 0.041333 0.210398
1462 1 0.25684 0.480008 0.271361
759 1 0.411083 0.22734 0.352557
1510 1 0.198586 0.139735 0.0820552
1874 1 0.182021 0.4419 0.314257
1876 1 0.225565 0.355017 0.250111
884 1 0.264393 0.112686 0.0698626
294 1 0.124951 0.421577 0.455722
1767 1 0.109383 0.115426 0.183012
1168 1 0.194275 0.0386532 0.000424361
674 1 0.467376 0.115531 0.171723
827 1 0.493949 0.0228527 0.334416
1580 1 0.456636 0.0406228 0.162318
385 1 0.389708 0.319745 0.230237
1780 1 0.30733 0.149199 0.377437
765 1 0.019388 0.352064 0.252577
1006 1 0.0724546 0.0791628 0.371354
508 1 0.0346466 0.459559 0.298931
671 1 0.490587 0.295971 0.481398
1700 1 0.10592 0.257193 0.323974
1834 1 0.0191516 0.0616415 0.0385077
934 1 0.247548 0.485198 0.0473789
1306 1 0.176551 0.0452379 0.43638
304 1 0.226781 0.0941993 0.388401
338 1 0.376302 0.36554 0.290651
56 1 0.42697 0.397974 0.41346
78 1 0.374666 0.487952 0.452646
683 1 0.0962981 0.174545 0.366699
1437 1 0.299394 0.432374 0.0648399
667 1 0.0867984 0.07498 0.263438
1926 1 0.115267 0.013603 0.402214
1330 1 0.0357909 0.336284 0.119423
1531 1 0.198484 0.125198 0.283871
673 1 0.0393959 0.423225 0.231994
92 1 0.313945 0.319462 0.190464
393 1 0.0762509 0.282882 0.0543537
36 1 0.00337698 0.494942 0.228795
425 1 0.0733201 0.247708 0.245856
232 1 0.340453 0.22242 0.488183
71 1 0.109108 0.405671 0.0175803
1870 1 0.104179 0.369438 0.112103
427 1 0.317649 0.00477247 0.496465
1280 1 0.301456 0.29171 0.443237
766 1 0.111891 0.422448 0.307443
1727 1 0.39662 0.279768 0.466332
312 1 0.195801 0.330116 0.316632
55 1 0.026433 0.116008 0.233486
13 1 0.15492 0.29299 0.249594
300 1 0.484164 0.443189 0.442707
1688 1 0.47559 0.333474 0.105943
1033 1 0.210057 0.169697 0.495872
1461 1 0.00462529 0.205227 0.476405
1714 1 0.222008 0.389931 0.358936
847 1 0.337499 0.473062 0.165891
1427 1 0.233272 0.265176 0.267762
1131 1 0.33687 0.0031024 0.417716
559 1 0.243788 0.379159 0.0837533
649 1 0.412465 0.374639 0.475498
1377 1 0.170324 0.0600097 0.317775
277 1 0.163905 0.446259 0.0944737
76 1 0.210973 0.166305 0.216368
1905 1 0.047818 0.200007 0.0124464
956 1 0.317889 0.452388 0.320427
888 1 0.209744 0.131155 0.0123766
1339 1 0.0989839 0.439606 0.378309
1185 1 0.05927 0.295231 0.423608
1549 1 0.203585 0.333378 0.184593
725 1 0.234564 0.0293336 0.100351
298 1 0.29129 0.0465719 0.253976
1966 1 0.164125 0.491208 0.487613
589 1 0.475793 0.152646 0.109914
785 1 0.259955 0.313275 0.134392
1044 1 0.471413 0.300953 0.359465
59 1 0.115118 0.341428 0.461222
1025 1 0.0209233 0.270687 0.0966168
1087 1 0.312269 0.318276 0.369612
1303 1 0.438881 0.372249 0.20804
1760 1 0.212975 0.276957 0.385886
1504 1 0.275083 0.113391 0.213979
1152 1 0.143407 0.20178 0.446007
714 1 0.136139 0.180251 0.303599
1120 1 0.211522 0.210575 0.427169
242 1 0.0692889 0.281758 0.155978
1661 1 0.176032 0.232795 0.117507
972 1 0.342088 0.231805 0.21566
1402 1 0.33239 0.276109 0.291603
467 1 0.167158 0.0286323 0.24853
1465 1 0.0579063 0.482047 0.174229
1912 1 0.288384 0.437444 0.132811
1976 1 0.355371 0.195619 0.14287
203 1 0.259225 0.193228 0.10551
35 1 0.350597 0.0712741 0.469208
1249 1 0.361246 0.466862 0.0496418
149 1 0.402118 0.332426 0.0363235
821 1 0.306767 0.363918 0.123399
1635 1 0.487148 0.465375 0.280259
1413 1 0.297861 0.0755826 0.408913
482 1 0.149228 0.389209 0.364703
191 1 0.380727 0.293578 0.342191
1719 1 0.28851 0.201397 0.43399
575 1 0.305358 0.341541 0.261765
1142 1 0.412401 0.0302903 0.317298
561 1 0.0732263 0.31977 0.224454
1735 1 0.454685 0.0733657 0.43078
1547 1 0.136922 0.309582 0.173434
1202 1 0.0558722 0.123352 0.0207441
1115 1 0.323738 0.284764 0.122793
1773 1 0.401462 0.00624962 0.0921471
605 1 0.0730476 0.035912 0.466009
1357 1 0.430936 0.44176 0.235312
65 1 0.459287 0.441663 0.354164
281 1 0.18478 0.153737 0.405753
2046 1 0.0136231 0.17576 0.387597
1302 1 0.432445 0.268503 0.294694
471 1 0.316971 0.203418 0.0638178
332 1 0.166882 0.0719421 0.0977181
492 1 0.42028 0.478175 0.299023
1543 1 0.187797 0.361245 0.471406
1558 1 0.343415 0.153169 0.249478
1548 1 0.419293 0.482094 0.0910171
1213 1 0.130386 0.278093 0.42641
1076 1 0.390542 0.129335 0.110813
69 1 0.0123032 0.241184 0.180252
872 1 0.291094 0.376222 0.415669
1802 1 0.026334 0.108379 0.426235
378 1 0.395106 0.0995028 0.322247
644 1 0.27709 0.0111686 0.0173215
1190 1 0.0625356 0.453562 0.102345
329 1 0.421431 0.152601 0.422117
1896 1 0.487322 0.475509 0.0869515
1788 1 0.284116 0.384446 0.306874
1633 1 0.407728 0.0196458 0.414957
1552 1 0.386591 0.448056 0.379953
1869 1 0.110871 0.187843 0.0790862
261 1 0.460797 0.426138 0.137326
483 1 0.451031 0.306917 0.177275
597 1 0.272471 0.455428 0.463384
921 1 0.020459 0.0654014 0.288288
1958 1 0.135358 0.113869 0.342132
547 1 0.122493 0.461358 0.234382
1701 1 0.053089 0.363873 0.0319961
259 1 0.22061 0.327998 0.0255242
1619 1 0.334871 0.247046 0.38662
1984 1 0.380753 0.340491 0.15951
376 1 0.0892187 0.148304 0.455463
1625 1 0.229657 0.243052 0.164803
1594 1 0.0478126 0.344428 0.48805
961 1 0.259774 0.442712 0.376362
1148 1 0.470777 0.0835709 0.23784
384 1 0.374447 0.163152 0.356219
1710 1 0.305925 0.0164718 0.0861248
1964 1 0.294858 0.21834 0.278934
1483 1 0.264031 0.448298 0.203103
255 1 0.110994 0.359592 0.276412
364 1 0.0659442 0.469212 0.461329
67 1 0.146318 0.385368 0.181236
2035 1 0.253315 0.25221 0.0116726
1637 1 0.00788334 0.0935073 0.145112
1706 1 0.227649 0.0611628 0.277862
1035 1 0.382772 0.0497518 0.141531
1408 1 0.220415 0.39169 0.145167
1572 1 0.00123567 0.256417 0.37043
1322 1 0.461567 0.194681 0.165775
86 1 0.147628 0.213575 0.223611
477 1 0.0799603 0.00468728 0.295651
214 1 0.389055 0.392161 0.10212
1328 1 0.225703 0.471672 0.117314
1647 1 0.0617354 0.327605 0.345469
1914 1 0.486536 0.168288 0.225323
1419 1 0.246653 0.21454 0.361748
911 1 0.0831491 0.36521 0.400488
402 1 0.0791905 0.0178456 0.064968
1299 1 0.474473 0.195231 0.377414
1176 1 0.483582 0.156613 0.310445
45 1 0.417642 0.064238 0.0454396
1135 1 0.131087 0.132055 0.254322
1140 1 0.474929 0.37298 0.279282
154 1 0.357116 0.184728 0.425308
873 1 0.42323 0.154051 0.0348765
1782 1 0.160532 0.22094 0.361825
1101 1 0.318386 0.399248 0.48004
1845 1 0.298386 0.170177 0.17839
1582 1 0.129098 0.158999 0.0199224
792 1 0.329585 0.0562209 0.342057
528 1 0.353898 0.130277 0.182653
837 1 0.181527 0.417534 0.236624
209 1 0.494841 0.190865 0.0373715
1298 1 0.262768 0.268207 0.0802911
1554 1 0.415891 0.252721 0.0267373
1234 1 0.137503 0.067102 0.0246665
1399 1 0.350653 0.390325 0.36125
2 1 0.421688 0.225456 0.235652
1050 1 0.405595 0.188733 0.294224
548 1 0.388109 0.25832 0.166675
904 1 0.366564 0.0968303 0.400939
1846 1 0.259019 0.282699 0.331737
522 1 0.0343937 0.391247 0.161997
79 1 0.146154 0.316092 0.0128236
1749 1 0.426531 0.222914 0.425161
288 1 0.0423631 0.167157 0.11146
1138 1 0.437768 0.376418 0.33882
2028 1 0.371913 0.0631506 0.227898
1304 1 0.348907 0.100263 0.0557969
624 1 0.425864 0.229278 0.0995291
7 1 0.248412 0.0341893 0.345382
1341 1 0.0661164 0.220476 0.409394
188 1 0.460547 0.49453 0.154941
1899 1 0.118925 0.196686 0.668515
536 1 0.0803697 0.416766 0.79466
513 1 0.423505 0.125833 0.883761
1657 1 0.422868 0.342447 0.911723
529 1 0.114421 0.210732 0.956886
392 1 0.443219 0.0169321 0.955881
1644 1 0.159904 0.205322 0.901027
832 1 0.396369 0.494309 0.757446
1551 1 0.149899 0.128151 0.658808
1159 1 0.120593 0.327844 0.611856
395 1 0.198557 0.231085 0.640293
1555 1 0.377236 0.276614 0.737193
840 1 0.308223 0.234211 0.747376
898 1 0.121511 0.244646 0.770188
139 1 0.203673 0.342811 0.721774
254 1 0.471526 0.0637896 0.820398
1425 1 0.0203275 0.248149 0.54015
1192 1 0.0486181 0.233889 0.777929
51 1 0.0424022 0.275517 0.979657
1721 1 0.249175 0.0866665 0.81433
1953 1 0.191571 0.475626 0.997838
1495 1 0.288669 0.270194 0.580343
1503 1 0.308572 0.196897 0.840811
711 1 0.0403645 0.271465 0.836714
1010 1 0.157313 0.110836 0.957027
1542 1 0.0769709 0.21954 0.716663
285 1 0.134049 0.0377196 0.876654
1989 1 0.143367 0.287514 0.699441
169 1 0.0569842 0.151876 0.713738
147 1 0.203419 0.289805 0.570513
1569 1 0.290624 0.154717 0.914711
1113 1 0.438526 0.275107 0.802011
468 1 0.237075 0.253458 0.711925
601 1 0.414089 0.0386398 0.741386
590 1 0.290413 0.0459949 0.650016
1449 1 0.131135 0.341729 0.750226
469 1 0.279946 0.318385 0.857597
1705 1 0.35837 0.254552 0.554522
699 1 0.106027 0.0423661 0.951589
1500 1 0.229531 0.0599693 0.697014
1464 1 0.355917 0.417476 1.00147
789 1 0.0391013 0.464657 0.85037
512 1 0.186843 0.0833875 0.848016
23 1 0.12844 0.122039 0.861336
1904 1 0.317474 0.372968 0.684824
158 1 0.257588 0.431216 0.649022
1472 1 0.193122 0.229137 0.829918
1494 1 0.146745 0.0273452 0.603213
1507 1 0.199768 0.407022 0.753767
712 1 0.103271 0.355537 0.822475
1666 1 0.0102705 0.150031 0.54093
1916 1 0.24628 0.350965 0.668909
1175 1 0.497539 0.243587 0.681478
701 1 0.269387 0.478943 0.879677
1961 1 0.471402 0.073331 0.918639
287 1 0.211816 0.163592 0.928833
1218 1 0.198007 0.485653 0.875866
629 1 0.027324 0.393953 0.687011
1360 1 0.368378 0.177587 0.656218
555 1 0.10988 0.36319 0.898694
389 1 0.0623171 0.0552451 0.805553
433 1 0.372469 0.262323 0.937025
1288 1 0.113125 0.392215 0.577893
1617 1 0.220032 0.473386 0.81342
1211 1 0.0661514 0.152472 0.633205
9 1 0.383469 0.361294 0.856846
1193 1 0.460668 0.47754 0.942128
443 1 0.348597 0.0643082 0.791405
1615 1 0.0623043 0.0931516 0.871453
715 1 0.455909 0.24417 0.953105
1758 1 0.285242 0.306219 0.714505
693 1 0.43319 0.110768 0.768442
1971 1 0.1952 0.0780204 0.766229
1443 1 0.316309 0.0880133 0.973523
870 1 0.251478 0.0155866 0.938549
1921 1 0.404495 0.316684 0.544759
465 1 0.281572 0.0692451 0.873887
1817 1 0.463371 0.464828 0.772776
1000 1 0.415703 0.331053 0.702525
1563 1 0.0451625 0.444534 0.735064
727 1 0.442358 0.453438 0.604229
1162 1 0.320523 0.378962 0.576131
1924 1 0.295457 0.453493 0.583907
1639 1 0.171544 0.223875 0.727273
962 1 0.474484 0.00148906 0.7699
1183 1 0.223906 0.173314 0.732931
1075 1 0.356758 0.423261 0.874534
905 1 0.135723 0.119876 0.516228
681 1 0.227553 0.416118 0.508666
838 1 0.312997 0.0969014 0.519332
75 1 0.100781 0.0794483 0.657349
1741 1 0.291747 0.10953 0.673718
1792 1 0.126379 0.0693918 0.732165
844 1 0.418226 0.0784564 0.67977
54 1 0.331158 0.016735 0.85215
1908 1 0.0206141 0.010951 0.515397
1260 1 0.330266 0.0982305 0.603524
794 1 0.239977 0.364355 0.574856
802 1 0.170994 0.315618 0.807509
223 1 0.081076 0.335034 0.972434
509 1 0.484077 0.301468 0.552335
187 1 0.256834 0.0902931 0.590345
1996 1 0.323718 0.138012 0.775432
1250 1 0.15866 0.459508 0.77622
1588 1 0.250527 0.276594 0.648397
1061 1 0.310185 0.220166 0.927179
557 1 0.447993 0.461466 0.525721
2044 1 0.286912 0.276761 0.806
1390 1 0.366187 0.290314 0.843343
1761 1 0.271278 0.31337 0.512111
1438 1 0.110797 0.265847 0.838221
1279 1 0.0692382 0.404512 0.942618
993 1 0.434296 0.0197683 0.885529
82 1 0.201175 0.0111705 0.881151
822 1 0.269549 0.417746 0.71752
720 1 0.343783 0.270368 0.648037
264 1 0.290097 0.330032 0.622033
1785 1 0.469587 0.308814 0.663159
1312 1 0.46999 0.383972 0.797708
1110 1 0.25164 0.211353 0.792649
757 1 0.353234 0.437779 0.735904
1352 1 0.0454906 0.0850429 0.510048
1829 1 0.186586 0.0710025 0.519757
566 1 0.0544313 0.367177 0.619559
391 1 0.395408 0.0671152 0.848272
562 1 0.226272 0.442909 0.575846
164 1 0.0701052 0.465342 0.992654
1331 1 0.0777251 0.296062 0.657161
887 1 0.244092 0.143054 0.853608
1645 1 0.216604 0.00771481 0.754543
12 1 0.488484 0.268757 0.753001
2034 1 0.229923 0.174234 0.592041
1082 1 0.363657 0.188097 0.58893
120 1 0.263453 0.232623 0.507763
1626 1 0.158122 0.434527 0.915931
499 1 0.186789 0.108526 0.581177
781 1 0.369092 0.447786 0.60386
24 1 0.0696609 0.487595 0.641183
586 1 0.0188578 0.159021 0.937137
1602 1 0.178088 0.380136 0.991033
84 1 0.338764 0.0174938 0.573511
959 1 0.415932 0.398793 0.719921
1026 1 0.250826 0.0944875 0.941877
1770 1 0.0567357 0.302767 0.574607
1821 1 0.272767 0.364002 0.76901
853 1 0.45231 0.162063 0.95171
1436 1 0.025316 0.323484 0.880262
995 1 0.375973 0.226294 0.820569
474 1 0.0685993 0.414236 0.521013
400 1 0.382741 0.198676 0.73952
1826 1 0.308016 0.300657 0.921479
1630 1 0.474193 0.352394 0.864938
1247 1 0.366292 0.028097 0.921239
1439 1 0.298005 0.197276 0.636896
1482 1 0.39893 0.15596 0.817248
116 1 0.111456 0.42631 0.645106
818 1 0.054806 0.0783781 0.581774
1665 1 0.092312 0.13715 0.78762
327 1 0.144145 0.414181 0.848646
1928 1 0.404877 0.26477 0.605921
1344 1 0.242244 0.355993 0.96083
1952 1 0.389463 0.00521342 0.637249
774 1 0.45431 0.0246756 0.538088
835 1 0.179429 0.154471 0.8103
506 1 0.432773 0.205876 0.569622
452 1 0.0564199 0.232741 0.632501
115 1 0.105926 0.365661 0.683055
985 1 0.0135311 0.445437 0.636801
670 1 0.147865 0.133034 0.728882
1841 1 0.127356 0.420141 0.722995
1678 1 0.168632 0.180777 0.550814
1224 1 0.389063 0.412863 0.802006
716 1 0.418783 0.12225 0.618954
976 1 0.243036 0.405987 0.883832
1481 1 0.365385 0.33737 0.963307
325 1 0.338409 0.464559 0.660498
1031 1 0.277996 0.446741 0.779589
320 1 0.299443 0.183517 0.564118
535 1 0.432823 0.283537 0.87134
874 1 0.0819009 0.141007 0.547847
1130 1 0.2924 0.0763047 0.743321
31 1 0.193109 0.39379 0.658169
810 1 0.219941 0.280484 0.772981
1368 1 0.185497 0.28659 0.954079
2016 1 0.217924 0.0145023 0.636725
1381 1 0.2846 0.169133 0.99032
273 1 0.44638 0.379636 0.652008
805 1 0.454345 0.186825 0.74502
1200 1 0.0615659 0.216869 0.899763
1032 1 0.00306561 0.262249 0.906852
799 1 0.0325794 0.364091 0.762272
735 1 0.420182 0.412314 0.906723
2007 1 0.0491803 0.472003 0.922407
1981 1 0.248437 0.0118534 0.822538
1837 1 0.476359 0.0288268 0.693707
1069 1 0.264666 0.0312002 0.550175
80 1 0.450423 0.106846 0.548194
1497 1 0.0443589 0.0330695 0.981434
341 1 0.0246568 0.174302 0.853597
225 1 0.19829 0.47649 0.64745
441 1 0.137976 0.0317821 0.803598
1575 1 0.136852 0.482496 0.837616
130 1 0.049566 0.304788 0.728766
1753 1 0.130132 0.256511 0.607584
1095 1 0.0211557 0.493295 0.515286
291 1 0.192956 0.469209 0.717242
253 1 0.124446 0.281645 0.53426
999 1 0.363925 0.163138 0.98283
215 1 0.375322 0.144928 0.526382
1535 1 0.466528 0.127026 0.702897
1297 1 0.110701 0.292096 0.911157
1355 1 0.349631 0.0621905 0.694244
560 1 0.407596 0.0600046 0.590128
543 1 0.39174 0.339997 0.7877
1674 1 0.305322 0.171487 0.706221
1865 1 0.243288 0.222121 0.888601
1979 1 0.305634 0.385748 0.927333
1871 1 0.183531 0.278645 0.883393
941 1 0.407507 0.250773 0.678502
1750 1 0.370648 0.178144 0.887128
387 1 0.306855 0.388822 0.834592
507 1 0.376673 0.120956 0.719657
1346 1 0.327606 0.456003 0.922745
890 1 0.0970872 0.19446 0.833178
807 1 0.46849 0.451385 0.677584
157 1 0.0920318 0.199925 0.580684
344 1 0.359459 0.112464 0.918407
279 1 0.0159949 0.168505 0.777531
926 1 0.0824981 0.128773 0.947632
1182 1 0.462436 0.025701 0.619325
1003 1 0.449813 0.192003 0.66485
2012 1 0.395117 0.334457 0.623219
302 1 0.220829 0.424363 0.948307
1859 1 0.00548595 0.221525 0.690329
702 1 0.469672 0.398837 0.505878
2022 1 0.272117 0.47624 0.953561
680 1 0.0572337 0.04287 0.731951
860 1 0.429057 0.0895015 0.977015
1490 1 0.186032 0.365247 0.916118
620 1 0.187297 0.310568 0.653554
773 1 0.444665 0.207873 0.844822
179 1 0.494046 0.134785 0.888321
558 1 0.0514686 0.0100497 0.665373
567 1 0.382615 0.428288 0.502749
1784 1 0.471106 0.231253 0.502725
1309 1 0.417165 0.402802 0.560102
159 1 0.486075 0.159602 0.607351
1975 1 0.135964 0.460436 0.576581
1745 1 0.110654 0.0521345 0.525145
1704 1 0.162156 0.40482 0.524973
357 1 0.0582112 0.447332 0.578854
1521 1 0.0286625 0.392385 0.849385
211 1 0.012577 0.298174 0.622374
1447 1 0.425786 0.431237 0.982792
892 1 0.176424 0.235106 0.506126
682 1 0.307942 0.306504 0.99737
1734 1 0.344957 0.235492 0.99625
1943 1 0.374492 0.039536 0.990233
1778 1 0.496746 0.443338 0.90071
736 1 0.39069 0.49222 0.940939
1809 1 0.0434596 0.904715 0.422082
1956 1 0.0556059 0.819271 0.137124
654 1 0.0845313 0.546772 0.470341
1860 1 0.17164 0.601745 0.26037
1838 1 0.159425 0.564885 0.486929
1595 1 0.0966971 0.858111 0.00926233
439 1 0.0258029 0.606432 0.268357
1653 1 0.422183 0.884403 0.303978
1257 1 0.292591 0.660927 0.0233146
981 1 0.23864 0.868815 0.381296
1180 1 0.417324 0.879914 0.0296568
1070 1 0.0668599 0.719586 0.345411
1683 1 0.0954535 0.702988 0.238195
1384 1 0.38352 0.611679 0.0797299
1872 1 0.282753 0.540036 0.200372
239 1 0.0845105 0.860579 0.372516
1359 1 0.457877 0.621358 0.26462
606 1 0.223971 0.946559 0.285243
1448 1 0.343429 0.977072 0.0227185
219 1 0.230677 0.911693 0.222469
1456 1 0.265046 0.640094 0.100834
1888 1 0.44928 0.635347 0.354219
1098 1 0.321286 0.790648 0.249218
1189 1 0.37403 0.948305 0.442835
1972 1 0.0638638 0.722553 0.451046
268 1 0.445324 0.792312 0.276051
743 1 0.320574 0.884975 0.109459
1378 1 0.254905 0.876797 0.142995
510 1 0.456573 0.798762 0.149552
1925 1 0.346482 0.533046 0.348816
1194 1 0.0854319 0.664271 0.0649987
1029 1 0.276995 0.54342 0.321573
487 1 0.462178 0.869786 0.178625
997 1 0.411918 0.922028 0.0886117
1434 1 0.157134 0.628663 0.365404
1518 1 0.218674 0.620592 0.318707
758 1 0.322393 0.545063 0.26436
1018 1 0.218891 0.793052 0.0492396
820 1 0.105262 0.587899 0.168248
1389 1 0.48289 0.970342 0.0850655
144 1 0.250528 0.806346 0.342919
909 1 0.158382 0.658931 0.300074
16 1 0.3849 0.67087 0.0273047
112 1 0.458464 0.808751 0.4691
2043 1 0.139201 0.915779 0.0778046
1 1 0.341455 0.762695 0.457962
386 1 0.491633 0.717982 0.0933769
1729 1 0.175342 0.530568 0.0881645
1739 1 0.491011 0.857862 0.0260836
160 1 0.424789 0.814537 0.0151686
1902 1 0.393573 0.558681 0.294374
1978 1 0.301591 0.749729 0.311769
2003 1 0.205962 0.711953 0.189035
906 1 0.283601 0.859041 0.481129
900 1 0.19996 0.993684 0.156943
691 1 0.457897 0.585243 0.188616
1545 1 0.382042 0.638276 0.48514
1732 1 0.0262956 0.582441 0.191215
1380 1 0.445873 0.948429 0.485422
227 1 0.0346793 0.744542 0.238367
1806 1 0.254351 0.698601 0.140614
552 1 0.0461347 0.853995 0.206337
1226 1 0.389649 0.672573 0.291497
1161 1 0.497126 0.599586 0.469772
38 1 0.226539 0.879918 0.0492678
2047 1 0.355093 0.698801 0.438604
1660 1 0.112951 0.835728 0.287961
336 1 0.383919 0.547498 0.0101733
1090 1 0.388686 0.82137 0.294965
616 1 0.40751 0.851636 0.12679
1786 1 0.129836 0.693821 0.366502
1118 1 0.218235 0.836513 0.443626
1177 1 0.28274 0.835594 0.0541815
626 1 0.203658 0.816632 0.228383
73 1 0.0698426 0.911403 0.0449157
1253 1 0.192612 0.521956 0.212799
1059 1 0.324873 0.587689 0.131192
637 1 0.213715 0.623838 0.0503665
196 1 0.181985 0.905829 0.329529
755 1 0.026439 0.528804 0.286932
272 1 0.0798714 0.944992 0.354313
1616 1 0.0818409 0.761321 0.288479
1105 1 0.134423 0.733361 0.101101
339 1 0.232021 0.549274 0.147795
2048 1 0.27253 0.96835 0.224133
162 1 0.00401423 0.914931 0.342396
982 1 0.22032 0.672437 0.375221
609 1 0.235971 0.70758 0.434811
2040 1 0.276427 0.842349 0.277741
1931 1 0.310016 0.595997 0.0609391
1300 1 0.455159 0.955353 0.291827
937 1 0.461881 0.568377 0.328408
1243 1 0.0751775 0.839817 0.441239
1181 1 0.0681059 0.667107 0.39808
594 1 0.187719 0.554914 0.347454
642 1 0.120448 0.849126 0.222571
764 1 0.333991 0.825271 0.15065
2029 1 0.159938 0.658666 0.212053
721 1 0.327001 0.727733 0.166379
1259 1 0.0624296 0.893572 0.304982
1021 1 0.381128 0.903213 0.38713
1830 1 0.463263 0.797803 0.353181
1491 1 0.181192 0.875682 0.26195
706 1 0.379475 0.632961 0.159298
530 1 0.251624 0.56047 0.0542587
833 1 0.00550661 0.978263 0.26555
740 1 0.115323 0.968833 0.184745
1191 1 0.409841 0.686992 0.118986
726 1 0.299768 0.918859 0.37906
1868 1 0.164973 0.751013 0.0296335
992 1 0.460283 0.657049 0.0808759
49 1 0.217869 0.612139 0.463251
421 1 0.474023 0.955498 0.221249
865 1 0.345402 0.647179 0.226971
462 1 0.194459 0.732698 0.342878
1286 1 0.0162183 0.727951 0.173125
652 1 0.00064895 0.674314 0.340337
1143 1 0.443365 0.510648 0.0349811
983 1 0.268219 0.598396 0.262791
494 1 0.155735 0.874771 0.474995
2021 1 0.0258829 0.590659 0.0476223
1042 1 0.0908046 0.780246 0.0603362
1329 1 0.231778 0.760567 0.288404
1814 1 0.332164 0.578063 0.476991
617 1 0.408218 0.725779 0.208893
1347 1 0.365756 0.605983 0.33426
1133 1 0.384045 0.745812 0.281706
1057 1 0.317799 0.995326 0.171874
747 1 0.115142 0.944767 0.28774
728 1 0.0656231 0.738867 0.124698
632 1 0.387324 0.513017 0.198612
845 1 0.483898 0.704888 0.242817
500 1 0.405302 0.557393 0.143607
746 1 0.389012 0.805404 0.416136
1097 1 0.0136905 0.985886 0.189664
472 1 0.223278 0.627383 0.206737
11 1 0.0257277 0.621408 0.432221
866 1 0.483723 0.95102 0.372562
502 1 0.213688 0.696995 0.0062798
659 1 0.408964 0.902643 0.222007
1813 1 0.235965 0.507033 0.393432
90 1 0.0722143 0.511612 0.373648
1851 1 0.130473 0.713506 0.169345
533 1 0.189621 0.665509 0.103128
795 1 0.0959578 0.572154 0.392885
2009 1 0.330466 0.702495 0.363193
1479 1 0.447143 0.746948 0.422485
695 1 0.0751215 0.522084 0.0800221
524 1 0.374531 0.762719 0.127295
1694 1 0.122682 0.62577 0.436803
791 1 0.171538 0.889954 0.186365
954 1 0.149208 0.842151 0.355331
1343 1 0.46292 0.541042 0.0943228
1941 1 0.306777 0.520669 0.0279005
655 1 0.291162 0.936879 0.0539215
1289 1 0.0286638 0.834415 0.276613
484 1 0.30721 0.655206 0.281067
719 1 0.446073 0.670362 0.187374
1835 1 0.225159 0.959594 0.37828
289 1 0.487888 0.773489 0.0127739
1986 1 0.0843135 0.657373 0.298492
2039 1 0.277503 0.800061 0.432402
1215 1 0.348728 0.954333 0.0963023
541 1 0.373697 0.9894 0.227828
358 1 0.273489 0.692793 0.214241
523 1 0.435035 0.745178 0.0609042
836 1 0.413672 0.962313 0.378284
107 1 0.293667 0.755161 0.0648821
1537 1 0.41678 0.869588 0.456559
1222 1 0.150429 0.892459 0.406235
877 1 0.263438 0.736048 0.499847
2041 1 0.455314 0.723736 0.298119
1154 1 0.434497 0.603509 0.0356261
1533 1 0.134287 0.723566 0.439132
604 1 0.356567 0.910705 0.175107
353 1 0.237882 0.679827 0.28893
1919 1 0.222586 0.913418 0.43846
610 1 0.175665 0.589155 0.161772
788 1 0.389323 0.809271 0.216102
311 1 0.291404 0.93645 0.449694
816 1 0.160053 0.992986 0.0484724
2000 1 0.162954 0.727176 0.25139
1893 1 0.47965 0.733991 0.169545
862 1 0.0775287 0.668216 0.139183
751 1 0.274237 0.836403 0.20271
1541 1 0.387248 0.591264 0.220866
863 1 0.166349 0.533743 0.282057
114 1 0.0135307 0.523378 0.433619
1426 1 0.41604 0.688946 0.39065
928 1 0.0302169 0.740061 0.0462506
21 1 0.0860524 0.85356 0.0852521
1184 1 0.167243 0.792073 0.295458
1107 1 0.294847 0.502729 0.101346
104 1 0.132555 0.932553 0.00588961
328 1 0.365411 0.532837 0.0858616
111 1 0.0450947 0.60616 0.345748
1123 1 0.311447 0.575086 0.400261
1146 1 0.328023 0.824759 0.355525
1128 1 0.451331 0.650251 0.491738
42 1 0.381814 0.753214 0.361927
53 1 0.0787748 0.919441 0.22318
1855 1 0.164445 0.845598 0.0500207
977 1 0.232614 0.577003 0.401422
1308 1 0.138376 0.806039 0.43585
480 1 0.0213911 0.878035 0.0848578
1310 1 0.14624 0.658721 0.017377
990 1 0.353572 0.738539 0.0330851
1005 1 0.347937 0.883854 0.0466778
1597 1 0.0868699 0.563759 0.306048
1261 1 0.273601 0.634877 0.43732
1556 1 0.0759729 0.530571 0.226248
1844 1 0.120013 0.786018 0.139561
1432 1 0.266027 0.748057 0.388292
133 1 0.441973 0.857817 0.382402
266 1 0.500196 0.830484 0.415294
405 1 0.496971 0.828661 0.239959
1376 1 0.267125 0.54167 0.457556
1589 1 0.183007 0.831766 0.123276
1296 1 0.381133 0.943004 0.283479
1348 1 0.325006 0.899116 0.314331
1013 1 0.248887 0.765197 0.212446
2011 1 0.333754 0.687852 0.0887573
1392 1 0.28166 0.626616 0.349107
2017 1 0.176528 0.970897 0.454948
704 1 0.213817 0.748923 0.113347
896 1 0.0740748 0.553343 0.00546906
531 1 0.0926686 0.603405 0.247657
718 1 0.111163 0.941351 0.434874
1894 1 0.328677 0.870287 0.424659
2010 1 0.339276 0.803051 0.0832987
556 1 0.043197 0.795528 0.3596
1776 1 0.00539086 0.81059 0.0742707
1080 1 0.41681 0.571879 0.425922
1207 1 0.303815 0.979971 0.351037
761 1 0.105315 0.890843 0.143992
1692 1 0.264983 0.80223 0.129659
2031 1 0.184457 0.777879 0.16994
842 1 0.255195 0.945122 0.114992
988 1 0.105599 0.520193 0.148943
150 1 0.127042 0.622024 0.108396
1047 1 0.050304 0.606524 0.111808
891 1 0.0445525 0.988927 0.413358
893 1 0.486204 0.990325 0.432371
662 1 0.213092 0.968587 0.0155577
1528 1 0.158753 0.98821 0.320152
1160 1 0.438327 0.960926 0.159055
155 1 0.496092 0.603196 0.131016
454 1 0.436778 0.519803 0.378018
34 1 0.494714 0.514952 0.216021
1546 1 0.447139 0.50845 0.45957
1940 1 0.00146831 0.843049 0.414225
630 1 0.01101 0.758688 0.424087
1823 1 0.162307 0.670896 0.484993
181 1 0.402705 0.555528 0.492947
1085 1 0.144409 0.514983 0.415607
675 1 0.498305 0.894241 0.282051
1149 1 0.432226 0.984715 0.031141
603 1 0.136009 0.507761 0.341833
971 1 0.0635053 0.952099 0.488402
346 1 0.307134 0.503433 0.404677
63 1 0.00958296 0.505699 0.0257003
2042 1 0.181754 0.739427 0.490875
1373 1 0.0306523 0.994975 0.117791
576 1 0.117448 0.499913 0.0310813
1810 1 0.125829 0.990913 0.49759
286 1 0.452653 0.505766 0.862358
1856 1 0.303658 0.759068 0.800501
1367 1 0.217184 0.715611 0.822685
1932 1 0.231305 0.595129 0.647875
1317 1 0.05325 0.850333 0.706671
1153 1 0.39925 0.947432 0.977917
787 1 0.224229 0.935759 0.767397
596 1 0.106545 0.714767 0.610234
2024 1 0.166901 0.818647 0.736363
1209 1 0.221773 0.946868 0.904871
1713 1 0.291112 0.890036 0.546257
451 1 0.293091 0.728856 0.597945
1375 1 0.131719 0.597845 0.70753
1578 1 0.08736 0.639182 0.866415
1848 1 0.153698 0.668857 0.562699
1536 1 0.0343825 0.832621 0.836988
679 1 0.107492 0.824264 0.823406
1712 1 0.181307 0.770974 0.567313
1231 1 0.397336 0.618996 0.614003
258 1 0.0882661 0.875244 0.546025
33 1 0.0779115 0.71689 0.736254
1573 1 0.123944 0.742558 0.858085
343 1 0.206189 0.609046 0.565146
878 1 0.327498 0.508865 0.716519
686 1 0.162056 0.873366 0.78226
1524 1 0.000121364 0.752205 0.602293
573 1 0.157656 0.858561 0.565906
1055 1 0.146831 0.780831 0.672696
608 1 0.247674 0.933485 0.673494
1965 1 0.162245 0.546069 0.991997
1696 1 0.359852 0.687153 0.598612
1898 1 0.241488 0.955605 0.516615
1906 1 0.309162 0.542726 0.954984
1320 1 0.369737 0.587832 0.55879
511 1 0.359816 0.511787 0.555801
1045 1 0.379718 0.929571 0.530194
1122 1 0.221566 0.508795 0.544242
152 1 0.444706 0.717078 0.988348
1656 1 0.472251 0.925079 0.980177
1824 1 0.434651 0.95296 0.588552
1980 1 0.0419557 0.877556 0.901758
1453 1 0.311184 0.834759 0.762847
1157 1 0.115737 0.794598 0.973929
1252 1 0.185553 0.823231 0.625762
1866 1 0.391667 0.653756 0.819677
237 1 0.447785 0.578082 0.659079
951 1 0.182283 0.725934 0.646578
713 1 0.219532 0.85475 0.519446
1974 1 0.161835 0.889613 0.654601
703 1 0.19776 0.621447 0.751556
1088 1 0.0167935 0.576798 0.933367
861 1 0.330534 0.910188 0.975739
1400 1 0.195713 0.996231 0.561757
526 1 0.190752 0.953485 0.831121
1737 1 0.0486222 0.916057 0.789051
426 1 0.308714 0.824531 0.6031
1236 1 0.281612 0.540542 0.594391
1840 1 0.415476 0.643701 0.915583
946 1 0.364727 0.796929 0.647858
1274 1 0.426344 0.85674 0.648463
964 1 0.0910894 0.783476 0.50598
127 1 0.0829113 0.904355 0.619102
1526 1 0.0719512 0.713382 0.919085
708 1 0.297931 0.809366 0.908049
1219 1 0.0431632 0.676904 0.579014
1620 1 0.00956701 0.509351 0.771497
1878 1 0.409582 0.775973 0.954228
1818 1 0.140651 0.890383 0.850114
1251 1 0.15958 0.991705 0.695402
1350 1 0.344935 0.707368 0.836855
505 1 0.294596 0.9605 0.792887
1038 1 0.458058 0.538154 0.76702
1315 1 0.467514 0.534794 0.523959
1900 1 0.263882 0.670784 0.776225
1864 1 0.432406 0.506158 0.697204
1008 1 0.033968 0.848711 0.50668
1382 1 0.103 0.537232 0.547319
1242 1 0.265519 0.878315 0.636599
318 1 0.157626 0.742502 0.758796
563 1 0.128337 0.942052 0.781377
578 1 0.234673 0.662852 0.532383
1722 1 0.305264 0.957874 0.553176
1171 1 0.0135334 0.863654 0.758934
1850 1 0.445176 0.923136 0.747664
66 1 0.0149737 0.538474 0.874681
1502 1 0.170702 0.655723 0.638553
1771 1 0.346619 0.834966 0.994127
1470 1 0.357688 0.707732 0.529131
1795 1 0.217701 0.690305 0.595513
436 1 0.498563 0.696559 0.803471
190 1 0.138278 0.681256 0.927924
360 1 0.311568 0.653245 0.868474
613 1 0.0139911 0.937239 0.533778
241 1 0.217789 0.711188 0.719534
1305 1 0.450632 0.605736 0.80417
952 1 0.00896605 0.599858 0.676864
948 1 0.463093 0.871052 0.861411
1196 1 0.497924 0.878442 0.597736
1048 1 0.370872 0.758711 0.585171
1332 1 0.361982 0.597543 0.945367
1505 1 0.426503 0.79435 0.532408
119 1 0.0807469 0.80593 0.89259
1627 1 0.105002 0.815544 0.587215
1513 1 0.297042 0.722961 0.669297
373 1 0.330022 0.577673 0.856833
1759 1 0.228628 0.793531 0.788756
1567 1 0.100587 0.615159 0.564965
216 1 0.500824 0.699947 0.706844
2026 1 0.417781 0.871973 0.790644
1321 1 0.28615 0.92245 0.86431