LAMMPS (15 Sep 2022)
OMP_NUM_THREADS environment is not set. Defaulting to 1 thread. (src/comm.cpp:98)
  using 1 OpenMP thread(s) per MPI task
LAMMPS (15 Sep 2022)
OMP_NUM_THREADS environment is not set. Defaulting to 1 thread. (src/comm.cpp:98)
  using 1 OpenMP thread(s) per MPI task
Reading restart file ...
  restart file = 15 Sep 2022, LAMMPS = 15 Sep 2022
  restoring atom style atomic from restart
  orthogonal box = (0 0 0) to (6.6943295 6.6943295 6.6943295)
  1 by 2 by 2 MPI processor grid
  restoring pair style lj/cut from restart
  360 atoms
  read_restart CPU = 0.003 seconds
Setting up annealing run
Generated 0 of 1 mixed pair_coeff terms from geometric mixing rule
Neighbor list info ...
  update: every = 1 steps, delay = 20 steps, check = yes
  max neighbors/atom: 2000, page size: 100000
  master list distance cutoff = 3
  ghost atom cutoff = 3
  binsize = 1.5, bins = 5 5 5
  1 neighbor lists, perpetual/occasional/extra = 1 0 0
  (1) pair lj/cut, perpetual
      attributes: half, newton on
      pair build: half/bin/atomonly/newton
      stencil: half/bin/3d
      bin: standard
Setting up Verlet run ...
  Unit style    : lj
  Current step  : 0
  Time step     : 0.002
Per MPI rank memory allocation (min/avg/max) = 4.114 | 4.115 | 4.115 Mbytes
   Step          Temp          E_pair         E_mol          TotEng         Press     
         0   1.5            6.1828112      0              8.4265612      79.587945    
Reading restart file ...
  restart file = 15 Sep 2022, LAMMPS = 15 Sep 2022
  restoring atom style atomic from restart
  orthogonal box = (0 0 0) to (6.6943295 6.6943295 6.6943295)
  1 by 2 by 2 MPI processor grid
  restoring pair style lj/cut from restart
  360 atoms
  read_restart CPU = 0.002 seconds
Setting up annealing run
Generated 0 of 1 mixed pair_coeff terms from geometric mixing rule
Neighbor list info ...
  update: every = 1 steps, delay = 20 steps, check = yes
  max neighbors/atom: 2000, page size: 100000
  master list distance cutoff = 3
  ghost atom cutoff = 3
  binsize = 1.5, bins = 5 5 5
  1 neighbor lists, perpetual/occasional/extra = 1 0 0
  (1) pair lj/cut, perpetual
      attributes: half, newton on
      pair build: half/bin/atomonly/newton
      stencil: half/bin/3d
      bin: standard
Setting up Verlet run ...
  Unit style    : lj
  Current step  : 0
  Time step     : 0.002
Per MPI rank memory allocation (min/avg/max) = 4.114 | 4.115 | 4.115 Mbytes
   Step          Temp          E_pair         E_mol          TotEng         Press     
         0   1.5            6.1828112      0              8.4265612      79.587945    
      1000   1.564295      -5.3238204      0             -2.9838958      14.598239    
      1000   1.564295      -5.3238204      0             -2.9838958      14.598239    
      2000   1.5719047     -5.2427833      0             -2.8914758      15.337174    
      2000   1.5719047     -5.2427833      0             -2.8914758      15.337174    
LAMMPS (15 Sep 2022)
OMP_NUM_THREADS environment is not set. Defaulting to 1 thread. (src/comm.cpp:98)
  using 1 OpenMP thread(s) per MPI task
Reading restart file ...
  restart file = 15 Sep 2022, LAMMPS = 15 Sep 2022
  restoring atom style atomic from restart
  orthogonal box = (0 0 0) to (6.6943295 6.6943295 6.6943295)
  1 by 2 by 2 MPI processor grid
  restoring pair style lj/cut from restart
  360 atoms
  read_restart CPU = 0.019 seconds
Setting up annealing run
Generated 0 of 1 mixed pair_coeff terms from geometric mixing rule
Neighbor list info ...
  update: every = 1 steps, delay = 20 steps, check = yes
  max neighbors/atom: 2000, page size: 100000
  master list distance cutoff = 3
  ghost atom cutoff = 3
  binsize = 1.5, bins = 5 5 5
  1 neighbor lists, perpetual/occasional/extra = 1 0 0
  (1) pair lj/cut, perpetual
      attributes: half, newton on
      pair build: half/bin/atomonly/newton
      stencil: half/bin/3d
      bin: standard
      3000   1.4653185     -5.236039       0             -3.0441668      15.204187    
      4000   1.5846926     -5.2994989      0             -2.9290629      14.862282    
Setting up Verlet run ...
  Unit style    : lj
  Current step  : 0
  Time step     : 0.002
Per MPI rank memory allocation (min/avg/max) = 4.114 | 4.115 | 4.115 Mbytes
   Step          Temp          E_pair         E_mol          TotEng         Press     
         0   1.5            6.1828112      0              8.4265612      79.587945    
      3000   1.4653185     -5.236039       0             -3.0441668      15.204187    
      4000   1.5846926     -5.2994989      0             -2.9290629      14.862282    
      1000   1.564295      -5.3238204      0             -2.9838958      14.598239    
      5000   1.4722794     -5.3228821      0             -3.1205975      14.472836    
      5000   1.4722794     -5.3228821      0             -3.1205975      14.472836    
      2000   1.5719047     -5.2427833      0             -2.8914758      15.337174    
      6000   1.4974666     -5.3452619      0             -3.1053014      14.566842    
      6000   1.4974666     -5.3452619      0             -3.1053014      14.566842    
      3000   1.4653185     -5.236039       0             -3.0441668      15.204187    
      7000   1.6623149     -5.3623951      0             -2.8758492      14.57415     
      7000   1.6623149     -5.3623951      0             -2.8758492      14.57415     
      4000   1.5846926     -5.2994989      0             -2.9290629      14.862282    
      8000   1.4133228     -5.2251162      0             -3.1110208      15.343904    
LAMMPS (15 Sep 2022)
OMP_NUM_THREADS environment is not set. Defaulting to 1 thread. (src/comm.cpp:98)
  using 1 OpenMP thread(s) per MPI task
      8000   1.4133228     -5.2251162      0             -3.1110208      15.343904    
Reading restart file ...
      5000   1.4722794     -5.3228821      0             -3.1205975      14.472836    
  restart file = 15 Sep 2022, LAMMPS = 15 Sep 2022
  restoring atom style atomic from restart
  orthogonal box = (0 0 0) to (6.6943295 6.6943295 6.6943295)
  1 by 2 by 2 MPI processor grid
  restoring pair style lj/cut from restart
  360 atoms
  read_restart CPU = 0.005 seconds
Setting up annealing run
Generated 0 of 1 mixed pair_coeff terms from geometric mixing rule
Neighbor list info ...
  update: every = 1 steps, delay = 20 steps, check = yes
  max neighbors/atom: 2000, page size: 100000
  master list distance cutoff = 3
  ghost atom cutoff = 3
  binsize = 1.5, bins = 5 5 5
  1 neighbor lists, perpetual/occasional/extra = 1 0 0
  (1) pair lj/cut, perpetual
      attributes: half, newton on
      pair build: half/bin/atomonly/newton
      stencil: half/bin/3d
      bin: standard
      9000   1.4580862     -5.2664032      0             -3.0853492      14.911174    
LAMMPS (15 Sep 2022)
Setting up Verlet run ...
  Unit style    : lj
  Current step  : 0
  Time step     : 0.002
Per MPI rank memory allocation (min/avg/max) = 4.114 | 4.115 | 4.115 Mbytes
   Step          Temp          E_pair         E_mol          TotEng         Press     
         0   1.5            6.1828112      0              8.4265612      79.587945    
      1000   1.564295      -5.3238204      0             -2.9838958      14.598239    
LAMMPS (15 Sep 2022)
      9000   1.4580862     -5.2664032      0             -3.0853492      14.911174    
      6000   1.4974666     -5.3452619      0             -3.1053014      14.566842    
      7000   1.6623149     -5.3623951      0             -2.8758492      14.57415     
OMP_NUM_THREADS environment is not set. Defaulting to 1 thread. (src/comm.cpp:98)
  using 1 OpenMP thread(s) per MPI task
Reading restart file ...
  restart file = 15 Sep 2022, LAMMPS = 15 Sep 2022
  restoring atom style atomic from restart
  orthogonal box = (0 0 0) to (6.6943295 6.6943295 6.6943295)
  1 by 2 by 2 MPI processor grid
  restoring pair style lj/cut from restart
  360 atoms
  read_restart CPU = 0.009 seconds
Setting up annealing run
Generated 0 of 1 mixed pair_coeff terms from geometric mixing rule
LAMMPS (15 Sep 2022)
LAMMPS (15 Sep 2022)
OMP_NUM_THREADS environment is not set. Defaulting to 1 thread. (src/comm.cpp:98)
  using 1 OpenMP thread(s) per MPI task
LAMMPS (15 Sep 2022)
OMP_NUM_THREADS environment is not set. Defaulting to 1 thread. (src/comm.cpp:98)
  using 1 OpenMP thread(s) per MPI task
      2000   1.5719047     -5.2427833      0             -2.8914758      15.337174    
OMP_NUM_THREADS environment is not set. Defaulting to 1 thread. (src/comm.cpp:98)
  using 1 OpenMP thread(s) per MPI task
Reading restart file ...
  restart file = 15 Sep 2022, LAMMPS = 15 Sep 2022
  restoring atom style atomic from restart
  orthogonal box = (0 0 0) to (6.6943295 6.6943295 6.6943295)
  1 by 2 by 2 MPI processor grid
  restoring pair style lj/cut from restart
  360 atoms
  read_restart CPU = 0.019 seconds
Setting up annealing run
Generated 0 of 1 mixed pair_coeff terms from geometric mixing rule
Neighbor list info ...
  update: every = 1 steps, delay = 20 steps, check = yes
  max neighbors/atom: 2000, page size: 100000
  master list distance cutoff = 3
  ghost atom cutoff = 3
  binsize = 1.5, bins = 5 5 5
  1 neighbor lists, perpetual/occasional/extra = 1 0 0
  (1) pair lj/cut, perpetual
      attributes: half, newton on
      pair build: half/bin/atomonly/newton
      stencil: half/bin/3d
      bin: standard
Setting up Verlet run ...
  Unit style    : lj
  Current step  : 0
  Time step     : 0.002
Per MPI rank memory allocation (min/avg/max) = 4.114 | 4.115 | 4.115 Mbytes
   Step          Temp          E_pair         E_mol          TotEng         Press     
         0   1.5            6.1828112      0              8.4265612      79.587945    
      8000   1.4133228     -5.2251162      0             -3.1110208      15.343904    
     10000   1.5401862     -5.3385509      0             -3.0346891      14.460129    
Loop time of 1.0441 on 4 procs for 10000 steps with 360 atoms

Performance: 1655014.001 tau/day, 9577.627 timesteps/s, 3.448 Matom-step/s
96.5% CPU use with 4 MPI tasks x 1 OpenMP threads

MPI task timing breakdown:
Section |  min time  |  avg time  |  max time  |%varavg| %total
---------------------------------------------------------------
Pair    | 0.49397    | 0.51226    | 0.52571    |   1.6 | 49.06
Neigh   | 0.056363   | 0.058059   | 0.059315   |   0.4 |  5.56
Comm    | 0.29186    | 0.30493    | 0.32367    |   2.1 | 29.21
Output  | 0.12815    | 0.12817    | 0.12824    |   0.0 | 12.28
Modify  | 0.028655   | 0.030304   | 0.031674   |   0.7 |  2.90
Other   |            | 0.01037    |            |       |  0.99

Nlocal:             90 ave          93 max          86 min
Histogram: 1 0 0 0 1 0 0 0 1 1
Nghost:        1232.25 ave        1242 max        1225 min
Histogram: 1 0 1 0 1 0 0 0 0 1
Neighs:         5204.5 ave        5447 max        4836 min
Histogram: 1 0 0 0 0 1 0 0 1 1

Total # of neighbors = 20818
Ave neighs/atom = 57.827778
Neighbor list builds = 347
Dangerous builds = 9
LAMMPS (15 Sep 2022)
Total wall time: 0:00:01
      3000   1.4653185     -5.236039       0             -3.0441668      15.204187    
      1000   1.564295      -5.3238204      0             -2.9838958      14.598239    
      9000   1.4580862     -5.2664032      0             -3.0853492      14.911174    
     10000   1.5401862     -5.3385509      0             -3.0346891      14.460129    
Loop time of 1.07924 on 4 procs for 10000 steps with 360 atoms

Performance: 1601132.111 tau/day, 9265.811 timesteps/s, 3.336 Matom-step/s
95.8% CPU use with 4 MPI tasks x 1 OpenMP threads

MPI task timing breakdown:
Section |  min time  |  avg time  |  max time  |%varavg| %total
---------------------------------------------------------------
Pair    | 0.49398    | 0.51141    | 0.52184    |   1.5 | 47.39
Neigh   | 0.056408   | 0.058107   | 0.059259   |   0.4 |  5.38
Comm    | 0.29237    | 0.30272    | 0.32005    |   1.9 | 28.05
Output  | 0.16644    | 0.16646    | 0.16652    |   0.0 | 15.42
Modify  | 0.029142   | 0.030226   | 0.031613   |   0.6 |  2.80
Other   |            | 0.01032    |            |       |  0.96

Nlocal:             90 ave          93 max          86 min
Histogram: 1 0 0 0 1 0 0 0 1 1
Nghost:        1232.25 ave        1242 max        1225 min
Histogram: 1 0 1 0 1 0 0 0 0 1
Neighs:         5204.5 ave        5447 max        4836 min
Histogram: 1 0 0 0 0 1 0 0 1 1

Total # of neighbors = 20818
Ave neighs/atom = 57.827778
Neighbor list builds = 347
Dangerous builds = 9
      4000   1.5846926     -5.2994989      0             -2.9290629      14.862282    
Total wall time: 0:00:01
Reading restart file ...
  restart file = 15 Sep 2022, LAMMPS = 15 Sep 2022
  restoring atom style atomic from restart
  orthogonal box = (0 0 0) to (6.6943295 6.6943295 6.6943295)
  1 by 2 by 2 MPI processor grid
  restoring pair style lj/cut from restart
  360 atoms
  read_restart CPU = 0.036 seconds
Setting up annealing run
Generated 0 of 1 mixed pair_coeff terms from geometric mixing rule
Neighbor list info ...
  update: every = 1 steps, delay = 20 steps, check = yes
  max neighbors/atom: 2000, page size: 100000
  master list distance cutoff = 3
  ghost atom cutoff = 3
  binsize = 1.5, bins = 5 5 5
  1 neighbor lists, perpetual/occasional/extra = 1 0 0
  (1) pair lj/cut, perpetual
      attributes: half, newton on
      pair build: half/bin/atomonly/newton
      stencil: half/bin/3d
      bin: standard
     10000   1.5401862     -5.3385509      0             -3.0346891      14.460129    
      5000   1.4722794     -5.3228821      0             -3.1205975      14.472836    
OMP_NUM_THREADS environment is not set. Defaulting to 1 thread. (src/comm.cpp:98)
  using 1 OpenMP thread(s) per MPI task
Reading restart file ...
  restart file = 15 Sep 2022, LAMMPS = 15 Sep 2022
  restoring atom style atomic from restart
  orthogonal box = (0 0 0) to (6.6943295 6.6943295 6.6943295)
  1 by 2 by 2 MPI processor grid
  restoring pair style lj/cut from restart
  360 atoms
  read_restart CPU = 0.036 seconds
Setting up annealing run
Generated 0 of 1 mixed pair_coeff terms from geometric mixing rule
Neighbor list info ...
  update: every = 1 steps, delay = 20 steps, check = yes
  max neighbors/atom: 2000, page size: 100000
  master list distance cutoff = 3
  ghost atom cutoff = 3
  binsize = 1.5, bins = 5 5 5
  1 neighbor lists, perpetual/occasional/extra = 1 0 0
  (1) pair lj/cut, perpetual
      attributes: half, newton on
      pair build: half/bin/atomonly/newton
      stencil: half/bin/3d
      bin: standard
Setting up Verlet run ...
  Unit style    : lj
  Current step  : 0
  Time step     : 0.002
Per MPI rank memory allocation (min/avg/max) = 4.114 | 4.115 | 4.115 Mbytes
   Step          Temp          E_pair         E_mol          TotEng         Press     
         0   1.5            6.1828112      0              8.4265612      79.587945    
Loop time of 0.972506 on 4 procs for 10000 steps with 360 atoms

Performance: 1776852.162 tau/day, 10282.709 timesteps/s, 3.702 Matom-step/s
97.9% CPU use with 4 MPI tasks x 1 OpenMP threads

MPI task timing breakdown:
Section |  min time  |  avg time  |  max time  |%varavg| %total
---------------------------------------------------------------
Pair    | 0.49322    | 0.51094    | 0.52023    |   1.5 | 52.54
Neigh   | 0.05623    | 0.058708   | 0.061854   |   0.8 |  6.04
Comm    | 0.28761    | 0.29883    | 0.3172     |   2.0 | 30.73
Output  | 0.063575   | 0.063589   | 0.06362    |   0.0 |  6.54
Modify  | 0.028834   | 0.030208   | 0.032128   |   0.8 |  3.11
Other   |            | 0.01023    |            |       |  1.05

Nlocal:             90 ave          93 max          86 min
Histogram: 1 0 0 0 1 0 0 0 1 1
Nghost:        1232.25 ave        1242 max        1225 min
Histogram: 1 0 1 0 1 0 0 0 0 1
Neighs:         5204.5 ave        5447 max        4836 min
Histogram: 1 0 0 0 0 1 0 0 1 1

Total # of neighbors = 20818
Ave neighs/atom = 57.827778
Neighbor list builds = 347
Dangerous builds = 9
Total wall time: 0:00:01
OMP_NUM_THREADS environment is not set. Defaulting to 1 thread. (src/comm.cpp:98)
  using 1 OpenMP thread(s) per MPI task
Reading restart file ...
  restart file = 15 Sep 2022, LAMMPS = 15 Sep 2022
  restoring atom style atomic from restart
  orthogonal box = (0 0 0) to (6.6943295 6.6943295 6.6943295)
  1 by 2 by 2 MPI processor grid
  restoring pair style lj/cut from restart
  360 atoms
  read_restart CPU = 0.022 seconds
Setting up annealing run
Generated 0 of 1 mixed pair_coeff terms from geometric mixing rule
Neighbor list info ...
  update: every = 1 steps, delay = 20 steps, check = yes
  max neighbors/atom: 2000, page size: 100000
  master list distance cutoff = 3
  ghost atom cutoff = 3
  binsize = 1.5, bins = 5 5 5
  1 neighbor lists, perpetual/occasional/extra = 1 0 0
  (1) pair lj/cut, perpetual
      attributes: half, newton on
      pair build: half/bin/atomonly/newton
      stencil: half/bin/3d
      bin: standard
      6000   1.4974666     -5.3452619      0             -3.1053014      14.566842    
      1000   1.564295      -5.3238204      0             -2.9838958      14.598239    
      2000   1.5719047     -5.2427833      0             -2.8914758      15.337174    
      3000   1.4653185     -5.236039       0             -3.0441668      15.204187    
Setting up Verlet run ...
  Unit style    : lj
  Current step  : 0
  Time step     : 0.002
Per MPI rank memory allocation (min/avg/max) = 4.114 | 4.115 | 4.115 Mbytes
   Step          Temp          E_pair         E_mol          TotEng         Press     
         0   1.5            6.1828112      0              8.4265612      79.587945    
      1000   1.564295      -5.3238204      0             -2.9838958      14.598239    
      2000   1.5719047     -5.2427833      0             -2.8914758      15.337174    
      3000   1.4653185     -5.236039       0             -3.0441668      15.204187    
      7000   1.6623149     -5.3623951      0             -2.8758492      14.57415     
Reading restart file ...
  restart file = 15 Sep 2022, LAMMPS = 15 Sep 2022
  restoring atom style atomic from restart
  orthogonal box = (0 0 0) to (6.6943295 6.6943295 6.6943295)
  1 by 2 by 2 MPI processor grid
  restoring pair style lj/cut from restart
  360 atoms
  read_restart CPU = 0.002 seconds
Setting up annealing run
Generated 0 of 1 mixed pair_coeff terms from geometric mixing rule
Neighbor list info ...
  update: every = 1 steps, delay = 20 steps, check = yes
  max neighbors/atom: 2000, page size: 100000
  master list distance cutoff = 3
  ghost atom cutoff = 3
  binsize = 1.5, bins = 5 5 5
  1 neighbor lists, perpetual/occasional/extra = 1 0 0
  (1) pair lj/cut, perpetual
      attributes: half, newton on
      pair build: half/bin/atomonly/newton
      stencil: half/bin/3d
      bin: standard
LAMMPS (15 Sep 2022)
OMP_NUM_THREADS environment is not set. Defaulting to 1 thread. (src/comm.cpp:98)
  using 1 OpenMP thread(s) per MPI task
Reading restart file ...
  restart file = 15 Sep 2022, LAMMPS = 15 Sep 2022
  restoring atom style atomic from restart
  orthogonal box = (0 0 0) to (6.6943295 6.6943295 6.6943295)
  1 by 2 by 2 MPI processor grid
  restoring pair style lj/cut from restart
  360 atoms
  read_restart CPU = 0.005 seconds
Setting up annealing run
Resetting global fix info from restart file:
  fix style: nvt, fix ID: 1
Generated 0 of 1 mixed pair_coeff terms from geometric mixing rule
All restart file global fix info was re-assigned
Neighbor list info ...
  update: every = 1 steps, delay = 20 steps, check = yes
  max neighbors/atom: 2000, page size: 100000
  master list distance cutoff = 3
  ghost atom cutoff = 3
  binsize = 1.5, bins = 5 5 5
  1 neighbor lists, perpetual/occasional/extra = 1 0 0
  (1) pair lj/cut, perpetual
      attributes: half, newton on
      pair build: half/bin/atomonly/newton
      stencil: half/bin/3d
      bin: standard
Setting up Verlet run ...
  Unit style    : lj
  Current step  : 0
  Time step     : 0.002
Per MPI rank memory allocation (min/avg/max) = 4.115 | 4.116 | 4.116 Mbytes
   Step          Temp          E_pair         E_mol          TotEng         Press     
         0   1             -5.3385509      0             -3.8427176      13.813706    
      2000   1.5719047     -5.2427833      0             -2.8914758      15.337174    
      8000   1.4133228     -5.2251162      0             -3.1110208      15.343904    
      4000   1.5846926     -5.2994989      0             -2.9290629      14.862282    
Setting up Verlet run ...
  Unit style    : lj
  Current step  : 0
  Time step     : 0.002
Per MPI rank memory allocation (min/avg/max) = 4.114 | 4.115 | 4.115 Mbytes
   Step          Temp          E_pair         E_mol          TotEng         Press     
         0   1.5            6.1828112      0              8.4265612      79.587945    
      1000   1.564295      -5.3238204      0             -2.9838958      14.598239    
      2000   1.5719047     -5.2427833      0             -2.8914758      15.337174    
      2000   1.0051799     -5.9071873      0             -4.4036057      10.732514    
      9000   1.4580862     -5.2664032      0             -3.0853492      14.911174    
Neighbor list info ...
  update: every = 1 steps, delay = 20 steps, check = yes
  max neighbors/atom: 2000, page size: 100000
  master list distance cutoff = 3
  ghost atom cutoff = 3
  binsize = 1.5, bins = 5 5 5
  1 neighbor lists, perpetual/occasional/extra = 1 0 0
  (1) pair lj/cut, perpetual
      attributes: half, newton on
      pair build: half/bin/atomonly/newton
      stencil: half/bin/3d
      bin: standard
      5000   1.4722794     -5.3228821      0             -3.1205975      14.472836    
      6000   1.4974666     -5.3452619      0             -3.1053014      14.566842    
LAMMPS (15 Sep 2022)
OMP_NUM_THREADS environment is not set. Defaulting to 1 thread. (src/comm.cpp:98)
  using 1 OpenMP thread(s) per MPI task
Reading restart file ...
  restart file = 15 Sep 2022, LAMMPS = 15 Sep 2022
  restoring atom style atomic from restart
  orthogonal box = (0 0 0) to (6.6943295 6.6943295 6.6943295)
  1 by 2 by 2 MPI processor grid
  restoring pair style lj/cut from restart
  360 atoms
  read_restart CPU = 0.002 seconds
Setting up annealing run
Resetting global fix info from restart file:
  fix style: nvt, fix ID: 1
Generated 0 of 1 mixed pair_coeff terms from geometric mixing rule
All restart file global fix info was re-assigned
Neighbor list info ...
  update: every = 1 steps, delay = 20 steps, check = yes
  max neighbors/atom: 2000, page size: 100000
  master list distance cutoff = 3
  ghost atom cutoff = 3
  binsize = 1.5, bins = 5 5 5
  1 neighbor lists, perpetual/occasional/extra = 1 0 0
  (1) pair lj/cut, perpetual
      attributes: half, newton on
      pair build: half/bin/atomonly/newton
      stencil: half/bin/3d
      bin: standard
Setting up Verlet run ...
  Unit style    : lj
  Current step  : 0
  Time step     : 0.002
Per MPI rank memory allocation (min/avg/max) = 4.115 | 4.116 | 4.116 Mbytes
   Step          Temp          E_pair         E_mol          TotEng         Press     
         0   1             -5.3385509      0             -3.8427176      13.813706    
      4000   1.0844504     -6.0154898      0             -4.3933327      10.084143    
LAMMPS (15 Sep 2022)
OMP_NUM_THREADS environment is not set. Defaulting to 1 thread. (src/comm.cpp:98)
  using 1 OpenMP thread(s) per MPI task
Reading restart file ...
  restart file = 15 Sep 2022, LAMMPS = 15 Sep 2022
  restoring atom style atomic from restart
  orthogonal box = (0 0 0) to (6.6943295 6.6943295 6.6943295)
  1 by 2 by 2 MPI processor grid
  restoring pair style lj/cut from restart
  360 atoms
  read_restart CPU = 0.002 seconds
Setting up annealing run
Resetting global fix info from restart file:
  fix style: nvt, fix ID: 1
Generated 0 of 1 mixed pair_coeff terms from geometric mixing rule
All restart file global fix info was re-assigned
Neighbor list info ...
  update: every = 1 steps, delay = 20 steps, check = yes
  max neighbors/atom: 2000, page size: 100000
  master list distance cutoff = 3
  ghost atom cutoff = 3
  binsize = 1.5, bins = 5 5 5
  1 neighbor lists, perpetual/occasional/extra = 1 0 0
  (1) pair lj/cut, perpetual
      attributes: half, newton on
      pair build: half/bin/atomonly/newton
      stencil: half/bin/3d
      bin: standard
Setting up Verlet run ...
  Unit style    : lj
  Current step  : 0
  Time step     : 0.002
Per MPI rank memory allocation (min/avg/max) = 4.115 | 4.116 | 4.116 Mbytes
   Step          Temp          E_pair         E_mol          TotEng         Press     
         0   1             -5.3385509      0             -3.8427176      13.813706    
     10000   1.5401862     -5.3385509      0             -3.0346891      14.460129    
      3000   1.4653185     -5.236039       0             -3.0441668      15.204187    
      4000   1.5846926     -5.2994989      0             -2.9290629      14.862282    
      5000   1.4722794     -5.3228821      0             -3.1205975      14.472836    
      6000   1.4974666     -5.3452619      0             -3.1053014      14.566842    
Loop time of 0.944811 on 4 procs for 10000 steps with 360 atoms

Performance: 1828937.571 tau/day, 10584.129 timesteps/s, 3.810 Matom-step/s
99.1% CPU use with 4 MPI tasks x 1 OpenMP threads

MPI task timing breakdown:
Section |  min time  |  avg time  |  max time  |%varavg| %total
---------------------------------------------------------------
Pair    | 0.52231    | 0.5383     | 0.55211    |   1.5 | 56.97
Neigh   | 0.0597     | 0.061231   | 0.062326   |   0.4 |  6.48
Comm    | 0.27459    | 0.28899    | 0.30623    |   2.1 | 30.59
Output  | 0.010925   | 0.010992   | 0.011188   |   0.1 |  1.16
Modify  | 0.032393   | 0.032856   | 0.033559   |   0.2 |  3.48
Other   |            | 0.01245    |            |       |  1.32

Nlocal:             90 ave          93 max          86 min
Histogram: 1 0 0 0 1 0 0 0 1 1
Nghost:        1232.25 ave        1242 max        1225 min
Histogram: 1 0 1 0 1 0 0 0 0 1
Neighs:         5204.5 ave        5447 max        4836 min
Histogram: 1 0 0 0 0 1 0 0 1 1

Total # of neighbors = 20818
Ave neighs/atom = 57.827778
Neighbor list builds = 347
Dangerous builds = 9
Total wall time: 0:00:01
      2000   1.0051799     -5.9071873      0             -4.4036057      10.732514    
Setting up Verlet run ...
  Unit style    : lj
  Current step  : 0
  Time step     : 0.002
Per MPI rank memory allocation (min/avg/max) = 4.114 | 4.115 | 4.115 Mbytes
   Step          Temp          E_pair         E_mol          TotEng         Press     
         0   1.5            6.1828112      0              8.4265612      79.587945    
      1000   1.564295      -5.3238204      0             -2.9838958      14.598239    
      2000   1.5719047     -5.2427833      0             -2.8914758      15.337174    
      3000   1.4653185     -5.236039       0             -3.0441668      15.204187    
      4000   1.5846926     -5.2994989      0             -2.9290629      14.862282    
      5000   1.4722794     -5.3228821      0             -3.1205975      14.472836    
      6000   1.4974666     -5.3452619      0             -3.1053014      14.566842    
      7000   1.6623149     -5.3623951      0             -2.8758492      14.57415     
      7000   1.6623149     -5.3623951      0             -2.8758492      14.57415     
      8000   1.4133228     -5.2251162      0             -3.1110208      15.343904    
      9000   1.4580862     -5.2664032      0             -3.0853492      14.911174    
      4000   1.5846926     -5.2994989      0             -2.9290629      14.862282    
      3000   1.4653185     -5.236039       0             -3.0441668      15.204187    
      4000   1.5846926     -5.2994989      0             -2.9290629      14.862282    
      5000   1.4722794     -5.3228821      0             -3.1205975      14.472836    
      6000   1.4974666     -5.3452619      0             -3.1053014      14.566842    
      7000   1.6623149     -5.3623951      0             -2.8758492      14.57415     
Setting up Verlet run ...
  Unit style    : lj
  Current step  : 0
  Time step     : 0.002
Per MPI rank memory allocation (min/avg/max) = 4.114 | 4.115 | 4.115 Mbytes
   Step          Temp          E_pair         E_mol          TotEng         Press     
         0   1.5            6.1828112      0              8.4265612      79.587945    
      1000   1.564295      -5.3238204      0             -2.9838958      14.598239    
      2000   1.5719047     -5.2427833      0             -2.8914758      15.337174    
      3000   1.4653185     -5.236039       0             -3.0441668      15.204187    
      4000   1.5846926     -5.2994989      0             -2.9290629      14.862282    
      5000   1.4722794     -5.3228821      0             -3.1205975      14.472836    
      6000   1.4974666     -5.3452619      0             -3.1053014      14.566842    
      7000   1.6623149     -5.3623951      0             -2.8758492      14.57415     
      8000   1.4133228     -5.2251162      0             -3.1110208      15.343904    
      9000   1.4580862     -5.2664032      0             -3.0853492      14.911174    
      5000   1.4722794     -5.3228821      0             -3.1205975      14.472836    
      6000   1.4974666     -5.3452619      0             -3.1053014      14.566842    
      7000   1.6623149     -5.3623951      0             -2.8758492      14.57415     
      8000   1.4133228     -5.2251162      0             -3.1110208      15.343904    
      9000   1.4580862     -5.2664032      0             -3.0853492      14.911174    
      8000   1.4133228     -5.2251162      0             -3.1110208      15.343904    
      9000   1.4580862     -5.2664032      0             -3.0853492      14.911174    
     10000   1.5401862     -5.3385509      0             -3.0346891      14.460129    
Loop time of 0.864124 on 4 procs for 10000 steps with 360 atoms

Performance: 1999712.305 tau/day, 11572.409 timesteps/s, 4.166 Matom-step/s
99.6% CPU use with 4 MPI tasks x 1 OpenMP threads

MPI task timing breakdown:
Section |  min time  |  avg time  |  max time  |%varavg| %total
---------------------------------------------------------------
Pair    | 0.51189    | 0.52887    | 0.539      |   1.4 | 61.20
Neigh   | 0.057959   | 0.059957   | 0.061088   |   0.5 |  6.94
Comm    | 0.22946    | 0.24014    | 0.25826    |   2.2 | 27.79
Output  | 0.00063478 | 0.00064987 | 0.00069093 |   0.0 |  0.08
Modify  | 0.024539   | 0.025272   | 0.026288   |   0.4 |  2.92
Other   |            | 0.009234   |            |       |  1.07

Nlocal:             90 ave          93 max          86 min
Histogram: 1 0 0 0 1 0 0 0 1 1
Nghost:        1232.25 ave        1242 max        1225 min
Histogram: 1 0 1 0 1 0 0 0 0 1
Neighs:         5204.5 ave        5447 max        4836 min
Histogram: 1 0 0 0 0 1 0 0 1 1

Total # of neighbors = 20818
Ave neighs/atom = 57.827778
Neighbor list builds = 347
Dangerous builds = 9
Total wall time: 0:00:01
      7000   1.6623149     -5.3623951      0             -2.8758492      14.57415     
      8000   1.4133228     -5.2251162      0             -3.1110208      15.343904    
      9000   1.4580862     -5.2664032      0             -3.0853492      14.911174    
     10000   1.5401862     -5.3385509      0             -3.0346891      14.460129    
Loop time of 0.945603 on 4 procs for 10000 steps with 360 atoms

Performance: 1827405.306 tau/day, 10575.262 timesteps/s, 3.807 Matom-step/s
99.3% CPU use with 4 MPI tasks x 1 OpenMP threads

MPI task timing breakdown:
Section |  min time  |  avg time  |  max time  |%varavg| %total
---------------------------------------------------------------
Pair    | 0.50667    | 0.52688    | 0.53883    |   1.7 | 55.72
Neigh   | 0.057944   | 0.059803   | 0.060974   |   0.5 |  6.32
Comm    | 0.29747    | 0.30978    | 0.33103    |   2.3 | 32.76
Output  | 0.0073414  | 0.0073577  | 0.0074044  |   0.0 |  0.78
Modify  | 0.030006   | 0.030969   | 0.031934   |   0.5 |  3.28
Other   |            | 0.01081    |            |       |  1.14

Nlocal:             90 ave          93 max          86 min
Histogram: 1 0 0 0 1 0 0 0 1 1
Nghost:        1232.25 ave        1242 max        1225 min
Histogram: 1 0 1 0 1 0 0 0 0 1
Neighs:         5204.5 ave        5447 max        4836 min
Histogram: 1 0 0 0 0 1 0 0 1 1

Total # of neighbors = 20818
Ave neighs/atom = 57.827778
Neighbor list builds = 347
Dangerous builds = 9
Total wall time: 0:00:01
     10000   1.5401862     -5.3385509      0             -3.0346891      14.460129    
     10000   1.5401862     -5.3385509      0             -3.0346891      14.460129    
Loop time of 0.944262 on 4 procs for 10000 steps with 360 atoms

Performance: 1830000.989 tau/day, 10590.284 timesteps/s, 3.813 Matom-step/s
99.6% CPU use with 4 MPI tasks x 1 OpenMP threads

MPI task timing breakdown:
Section |  min time  |  avg time  |  max time  |%varavg| %total
---------------------------------------------------------------
Pair    | 0.50998    | 0.5303     | 0.54104    |   1.7 | 56.16
Neigh   | 0.057899   | 0.05976    | 0.060796   |   0.5 |  6.33
Comm    | 0.30234    | 0.31159    | 0.33142    |   2.1 | 33.00
Output  | 0.00066673 | 0.00068577 | 0.00074192 |   0.0 |  0.07
Modify  | 0.02873    | 0.031136   | 0.033751   |   1.0 |  3.30
Other   |            | 0.01079    |            |       |  1.14

Nlocal:             90 ave          93 max          86 min
Histogram: 1 0 0 0 1 0 0 0 1 1
Nghost:        1232.25 ave        1242 max        1225 min
Histogram: 1 0 1 0 1 0 0 0 0 1
Neighs:         5204.5 ave        5447 max        4836 min
Histogram: 1 0 0 0 0 1 0 0 1 1

Total # of neighbors = 20818
Ave neighs/atom = 57.827778
Neighbor list builds = 347
Dangerous builds = 9
Total wall time: 0:00:01
Loop time of 0.936273 on 4 procs for 10000 steps with 360 atoms

Performance: 1845616.335 tau/day, 10680.650 timesteps/s, 3.845 Matom-step/s
99.6% CPU use with 4 MPI tasks x 1 OpenMP threads

MPI task timing breakdown:
Section |  min time  |  avg time  |  max time  |%varavg| %total
---------------------------------------------------------------
Pair    | 0.5065     | 0.52594    | 0.53632    |   1.6 | 56.17
Neigh   | 0.057896   | 0.059904   | 0.060902   |   0.5 |  6.40
Comm    | 0.29772    | 0.30781    | 0.32802    |   2.2 | 32.88
Output  | 0.00097655 | 0.00099836 | 0.0010628  |   0.0 |  0.11
Modify  | 0.029611   | 0.030845   | 0.032034   |   0.6 |  3.29
Other   |            | 0.01077    |            |       |  1.15

Nlocal:             90 ave          93 max          86 min
Histogram: 1 0 0 0 1 0 0 0 1 1
Nghost:        1232.25 ave        1242 max        1225 min
Histogram: 1 0 1 0 1 0 0 0 0 1
Neighs:         5204.5 ave        5447 max        4836 min
Histogram: 1 0 0 0 0 1 0 0 1 1

Total # of neighbors = 20818
Ave neighs/atom = 57.827778
Neighbor list builds = 347
Dangerous builds = 9
Total wall time: 0:00:01
      6000   0.96257793    -6.0454741      0             -4.605618       9.5967911    
      4000   1.0844504     -6.0154898      0             -4.3933327      10.084143    
      2000   1.0051799     -5.9071873      0             -4.4036057      10.732514    
      8000   1.4133228     -5.2251162      0             -3.1110208      15.343904    
      9000   1.4580862     -5.2664032      0             -3.0853492      14.911174    
     10000   1.5401862     -5.3385509      0             -3.0346891      14.460129    
Loop time of 0.863475 on 4 procs for 10000 steps with 360 atoms

Performance: 2001215.425 tau/day, 11581.108 timesteps/s, 4.169 Matom-step/s
99.6% CPU use with 4 MPI tasks x 1 OpenMP threads

MPI task timing breakdown:
Section |  min time  |  avg time  |  max time  |%varavg| %total
---------------------------------------------------------------
Pair    | 0.50878    | 0.52862    | 0.54009    |   1.6 | 61.22
Neigh   | 0.057997   | 0.05985    | 0.060822   |   0.4 |  6.93
Comm    | 0.22609    | 0.23841    | 0.25904    |   2.5 | 27.61
Output  | 0.001018   | 0.0010327  | 0.0010763  |   0.1 |  0.12
Modify  | 0.025436   | 0.026211   | 0.027299   |   0.4 |  3.04
Other   |            | 0.009355   |            |       |  1.08

Nlocal:             90 ave          93 max          86 min
Histogram: 1 0 0 0 1 0 0 0 1 1
Nghost:        1232.25 ave        1242 max        1225 min
Histogram: 1 0 1 0 1 0 0 0 0 1
Neighs:         5204.5 ave        5447 max        4836 min
Histogram: 1 0 0 0 0 1 0 0 1 1

Total # of neighbors = 20818
Ave neighs/atom = 57.827778
Neighbor list builds = 347
Dangerous builds = 9
Total wall time: 0:00:01
     10000   1.5401862     -5.3385509      0             -3.0346891      14.460129    
Loop time of 0.862709 on 4 procs for 10000 steps with 360 atoms

Performance: 2002993.232 tau/day, 11591.396 timesteps/s, 4.173 Matom-step/s
99.6% CPU use with 4 MPI tasks x 1 OpenMP threads

MPI task timing breakdown:
Section |  min time  |  avg time  |  max time  |%varavg| %total
---------------------------------------------------------------
Pair    | 0.50677    | 0.52733    | 0.53883    |   1.7 | 61.12
Neigh   | 0.058267   | 0.060127   | 0.061065   |   0.5 |  6.97
Comm    | 0.22836    | 0.23999    | 0.26104    |   2.6 | 27.82
Output  | 0.00062889 | 0.00064432 | 0.00068904 |   0.0 |  0.07
Modify  | 0.024248   | 0.025424   | 0.027048   |   0.7 |  2.95
Other   |            | 0.009191   |            |       |  1.07

Nlocal:             90 ave          93 max          86 min
Histogram: 1 0 0 0 1 0 0 0 1 1
Nghost:        1232.25 ave        1242 max        1225 min
Histogram: 1 0 1 0 1 0 0 0 0 1
Neighs:         5204.5 ave        5447 max        4836 min
Histogram: 1 0 0 0 0 1 0 0 1 1

Total # of neighbors = 20818
Ave neighs/atom = 57.827778
Neighbor list builds = 347
Dangerous builds = 9
Total wall time: 0:00:01
      8000   0.96568417    -6.0074122      0             -4.5629096      9.8846388    
      4000   1.0844504     -6.0154898      0             -4.3933327      10.084143    
      6000   0.96257793    -6.0454741      0             -4.605618       9.5967911    
LAMMPS (15 Sep 2022)
OMP_NUM_THREADS environment is not set. Defaulting to 1 thread. (src/comm.cpp:98)
  using 1 OpenMP thread(s) per MPI task
LAMMPS (15 Sep 2022)
OMP_NUM_THREADS environment is not set. Defaulting to 1 thread. (src/comm.cpp:98)
  using 1 OpenMP thread(s) per MPI task
LAMMPS (15 Sep 2022)
Reading restart file ...
OMP_NUM_THREADS environment is not set. Defaulting to 1 thread. (src/comm.cpp:98)
  using 1 OpenMP thread(s) per MPI task
Reading restart file ...
  restart file = 15 Sep 2022, LAMMPS = 15 Sep 2022
  restoring atom style atomic from restart
  orthogonal box = (0 0 0) to (6.6943295 6.6943295 6.6943295)
  1 by 2 by 2 MPI processor grid
  restoring pair style lj/cut from restart
  360 atoms
  read_restart CPU = 0.002 seconds
Setting up annealing run
Resetting global fix info from restart file:
  fix style: nvt, fix ID: 1
Generated 0 of 1 mixed pair_coeff terms from geometric mixing rule
All restart file global fix info was re-assigned
Neighbor list info ...
  update: every = 1 steps, delay = 20 steps, check = yes
  max neighbors/atom: 2000, page size: 100000
  master list distance cutoff = 3
  ghost atom cutoff = 3
  binsize = 1.5, bins = 5 5 5
  1 neighbor lists, perpetual/occasional/extra = 1 0 0
  (1) pair lj/cut, perpetual
      attributes: half, newton on
      pair build: half/bin/atomonly/newton
      stencil: half/bin/3d
      bin: standard
  restart file = 15 Sep 2022, LAMMPS = 15 Sep 2022
  restoring atom style atomic from restart
  orthogonal box = (0 0 0) to (6.6943295 6.6943295 6.6943295)
  1 by 2 by 2 MPI processor grid
  restoring pair style lj/cut from restart
  360 atoms
  read_restart CPU = 0.002 seconds
Setting up annealing run
Resetting global fix info from restart file:
  fix style: nvt, fix ID: 1
Generated 0 of 1 mixed pair_coeff terms from geometric mixing rule
All restart file global fix info was re-assigned
Neighbor list info ...
  update: every = 1 steps, delay = 20 steps, check = yes
  max neighbors/atom: 2000, page size: 100000
  master list distance cutoff = 3
  ghost atom cutoff = 3
  binsize = 1.5, bins = 5 5 5
  1 neighbor lists, perpetual/occasional/extra = 1 0 0
  (1) pair lj/cut, perpetual
      attributes: half, newton on
      pair build: half/bin/atomonly/newton
      stencil: half/bin/3d
      bin: standard
      6000   0.96257793    -6.0454741      0             -4.605618       9.5967911    
Reading restart file ...
LAMMPS (15 Sep 2022)
  restart file = 15 Sep 2022, LAMMPS = 15 Sep 2022
  restoring atom style atomic from restart
  orthogonal box = (0 0 0) to (6.6943295 6.6943295 6.6943295)
      8000   0.96568417    -6.0074122      0             -4.5629096      9.8846388    
Setting up Verlet run ...
  Unit style    : lj
  Current step  : 0
  Time step     : 0.002
  1 by 2 by 2 MPI processor grid
  restoring pair style lj/cut from restart
  360 atoms
  read_restart CPU = 0.005 seconds
Setting up annealing run
Resetting global fix info from restart file:
  fix style: nvt, fix ID: 1
Generated 0 of 1 mixed pair_coeff terms from geometric mixing rule
All restart file global fix info was re-assigned
Neighbor list info ...
  update: every = 1 steps, delay = 20 steps, check = yes
  max neighbors/atom: 2000, page size: 100000
  master list distance cutoff = 3
  ghost atom cutoff = 3
  binsize = 1.5, bins = 5 5 5
  1 neighbor lists, perpetual/occasional/extra = 1 0 0
  (1) pair lj/cut, perpetual
      attributes: half, newton on
      pair build: half/bin/atomonly/newton
      stencil: half/bin/3d
      bin: standard
     10000   0.92675557    -5.9558959      0             -4.5696241      10.169365    
LAMMPS (15 Sep 2022)
OMP_NUM_THREADS environment is not set. Defaulting to 1 thread. (src/comm.cpp:98)
  using 1 OpenMP thread(s) per MPI task
      8000   0.96568417    -6.0074122      0             -4.5629096      9.8846388    
LAMMPS (15 Sep 2022)
OMP_NUM_THREADS environment is not set. Defaulting to 1 thread. (src/comm.cpp:98)
  using 1 OpenMP thread(s) per MPI task
Reading restart file ...
  restart file = 15 Sep 2022, LAMMPS = 15 Sep 2022
  restoring atom style atomic from restart
  orthogonal box = (0 0 0) to (6.6943295 6.6943295 6.6943295)
  1 by 2 by 2 MPI processor grid
  restoring pair style lj/cut from restart
  360 atoms
  read_restart CPU = 0.002 seconds
Setting up annealing run
Resetting global fix info from restart file:
  fix style: nvt, fix ID: 1
Generated 0 of 1 mixed pair_coeff terms from geometric mixing rule
All restart file global fix info was re-assigned
Neighbor list info ...
  update: every = 1 steps, delay = 20 steps, check = yes
  max neighbors/atom: 2000, page size: 100000
  master list distance cutoff = 3
  ghost atom cutoff = 3
  binsize = 1.5, bins = 5 5 5
  1 neighbor lists, perpetual/occasional/extra = 1 0 0
  (1) pair lj/cut, perpetual
      attributes: half, newton on
      pair build: half/bin/atomonly/newton
      stencil: half/bin/3d
      bin: standard
Per MPI rank memory allocation (min/avg/max) = 4.115 | 4.116 | 4.116 Mbytes
   Step          Temp          E_pair         E_mol          TotEng         Press     
         0   1             -5.3385509      0             -3.8427176      13.813706    
      2000   1.0051799     -5.9071873      0             -4.4036057      10.732514    
LAMMPS (15 Sep 2022)
OMP_NUM_THREADS environment is not set. Defaulting to 1 thread. (src/comm.cpp:98)
  using 1 OpenMP thread(s) per MPI task
Setting up Verlet run ...
  Unit style    : lj
  Current step  : 0
  Time step     : 0.002
OMP_NUM_THREADS environment is not set. Defaulting to 1 thread. (src/comm.cpp:98)
  using 1 OpenMP thread(s) per MPI task
Reading restart file ...
  restart file = 15 Sep 2022, LAMMPS = 15 Sep 2022
  restoring atom style atomic from restart
  orthogonal box = (0 0 0) to (6.6943295 6.6943295 6.6943295)
  1 by 2 by 2 MPI processor grid
  restoring pair style lj/cut from restart
  360 atoms
  read_restart CPU = 0.001 seconds
Setting up annealing run
Resetting global fix info from restart file:
  fix style: nvt, fix ID: 1
Generated 0 of 1 mixed pair_coeff terms from geometric mixing rule
All restart file global fix info was re-assigned
Neighbor list info ...
  update: every = 1 steps, delay = 20 steps, check = yes
  max neighbors/atom: 2000, page size: 100000
  master list distance cutoff = 3
  ghost atom cutoff = 3
  binsize = 1.5, bins = 5 5 5
  1 neighbor lists, perpetual/occasional/extra = 1 0 0
  (1) pair lj/cut, perpetual
      attributes: half, newton on
      pair build: half/bin/atomonly/newton
      stencil: half/bin/3d
      bin: standard
Setting up Verlet run ...
  Unit style    : lj
  Current step  : 0
  Time step     : 0.002
Per MPI rank memory allocation (min/avg/max) = 4.115 | 4.116 | 4.116 Mbytes
   Step          Temp          E_pair         E_mol          TotEng         Press     
         0   1             -5.3385509      0             -3.8427176      13.813706    
Reading restart file ...
  restart file = 15 Sep 2022, LAMMPS = 15 Sep 2022
  restoring atom style atomic from restart
  orthogonal box = (0 0 0) to (6.6943295 6.6943295 6.6943295)
  1 by 2 by 2 MPI processor grid
  restoring pair style lj/cut from restart
  360 atoms
  read_restart CPU = 0.002 seconds
Setting up annealing run
Resetting global fix info from restart file:
  fix style: nvt, fix ID: 1
Generated 0 of 1 mixed pair_coeff terms from geometric mixing rule
All restart file global fix info was re-assigned
Neighbor list info ...
  update: every = 1 steps, delay = 20 steps, check = yes
  max neighbors/atom: 2000, page size: 100000
  master list distance cutoff = 3
  ghost atom cutoff = 3
  binsize = 1.5, bins = 5 5 5
  1 neighbor lists, perpetual/occasional/extra = 1 0 0
  (1) pair lj/cut, perpetual
      attributes: half, newton on
      pair build: half/bin/atomonly/newton
      stencil: half/bin/3d
      bin: standard
Setting up Verlet run ...
  Unit style    : lj
  Current step  : 0
  Time step     : 0.002
Per MPI rank memory allocation (min/avg/max) = 4.115 | 4.116 | 4.116 Mbytes
   Step          Temp          E_pair         E_mol          TotEng         Press     
         0   1             -5.3385509      0             -3.8427176      13.813706    
     12000   0.96596372    -5.9045924      0             -4.4596716      10.610339    
Setting up Verlet run ...
  Unit style    : lj
  Current step  : 0
  Time step     : 0.002
Setting up Verlet run ...
  Unit style    : lj
  Current step  : 0
  Time step     : 0.002
Per MPI rank memory allocation (min/avg/max) = 4.115 | 4.116 | 4.116 Mbytes
   Step          Temp          E_pair         E_mol          TotEng         Press     
         0   1             -5.3385509      0             -3.8427176      13.813706    
Per MPI rank memory allocation (min/avg/max) = 4.115 | 4.116 | 4.116 Mbytes
   Step          Temp          E_pair         E_mol          TotEng         Press     
         0   1             -5.3385509      0             -3.8427176      13.813706    
Reading restart file ...
  restart file = 15 Sep 2022, LAMMPS = 15 Sep 2022
  restoring atom style atomic from restart
  orthogonal box = (0 0 0) to (6.6943295 6.6943295 6.6943295)
  1 by 2 by 2 MPI processor grid
  restoring pair style lj/cut from restart
  360 atoms
  read_restart CPU = 0.001 seconds
Setting up annealing run
Resetting global fix info from restart file:
  fix style: nvt, fix ID: 1
Generated 0 of 1 mixed pair_coeff terms from geometric mixing rule
All restart file global fix info was re-assigned
Neighbor list info ...
  update: every = 1 steps, delay = 20 steps, check = yes
  max neighbors/atom: 2000, page size: 100000
  master list distance cutoff = 3
  ghost atom cutoff = 3
  binsize = 1.5, bins = 5 5 5
  1 neighbor lists, perpetual/occasional/extra = 1 0 0
  (1) pair lj/cut, perpetual
      attributes: half, newton on
      pair build: half/bin/atomonly/newton
      stencil: half/bin/3d
      bin: standard
Setting up Verlet run ...
  Unit style    : lj
  Current step  : 0
  Time step     : 0.002
Per MPI rank memory allocation (min/avg/max) = 4.115 | 4.116 | 4.116 Mbytes
   Step          Temp          E_pair         E_mol          TotEng         Press     
         0   1             -5.3385509      0             -3.8427176      13.813706    
      2000   1.0051799     -5.9071873      0             -4.4036057      10.732514    
      2000   1.0051799     -5.9071873      0             -4.4036057      10.732514    
     10000   0.92675557    -5.9558959      0             -4.5696241      10.169365    
      2000   1.0051799     -5.9071873      0             -4.4036057      10.732514    
      4000   1.0844504     -6.0154898      0             -4.3933327      10.084143    
     10000   0.92675557    -5.9558959      0             -4.5696241      10.169365    
Per MPI rank memory allocation (min/avg/max) = 4.115 | 4.116 | 4.116 Mbytes
   Step          Temp          E_pair         E_mol          TotEng         Press     
         0   1             -5.3385509      0             -3.8427176      13.813706    
      2000   1.0051799     -5.9071873      0             -4.4036057      10.732514    
      2000   1.0051799     -5.9071873      0             -4.4036057      10.732514    
     14000   1.0223424     -6.0401915      0             -4.5109376      9.5563327    
      4000   1.0844504     -6.0154898      0             -4.3933327      10.084143    
     12000   0.96596372    -5.9045924      0             -4.4596716      10.610339    
      4000   1.0844504     -6.0154898      0             -4.3933327      10.084143    
      2000   1.0051799     -5.9071873      0             -4.4036057      10.732514    
     12000   0.96596372    -5.9045924      0             -4.4596716      10.610339    
      4000   1.0844504     -6.0154898      0             -4.3933327      10.084143    
     16000   0.99652109    -6.0540627      0             -4.5634332      9.7218841    
      4000   1.0844504     -6.0154898      0             -4.3933327      10.084143    
      6000   0.96257793    -6.0454741      0             -4.605618       9.5967911    
      4000   1.0844504     -6.0154898      0             -4.3933327      10.084143    
      6000   0.96257793    -6.0454741      0             -4.605618       9.5967911    
      6000   0.96257793    -6.0454741      0             -4.605618       9.5967911    
      6000   0.96257793    -6.0454741      0             -4.605618       9.5967911    
     14000   1.0223424     -6.0401915      0             -4.5109376      9.5563327    
      4000   1.0844504     -6.0154898      0             -4.3933327      10.084143    
      6000   0.96257793    -6.0454741      0             -4.605618       9.5967911    
      8000   0.96568417    -6.0074122      0             -4.5629096      9.8846388    
     14000   1.0223424     -6.0401915      0             -4.5109376      9.5563327    
      6000   0.96257793    -6.0454741      0             -4.605618       9.5967911    
     18000   0.99665514    -5.9401912      0             -4.4493612      10.200412    
      8000   0.96568417    -6.0074122      0             -4.5629096      9.8846388    
      8000   0.96568417    -6.0074122      0             -4.5629096      9.8846388    
      8000   0.96568417    -6.0074122      0             -4.5629096      9.8846388    
     16000   0.99652109    -6.0540627      0             -4.5634332      9.7218841    
      6000   0.96257793    -6.0454741      0             -4.605618       9.5967911    
     16000   0.99652109    -6.0540627      0             -4.5634332      9.7218841    
      8000   0.96568417    -6.0074122      0             -4.5629096      9.8846388    
     20000   0.98337306    -6.1363741      0             -4.6654119      8.9669356    
      8000   0.96568417    -6.0074122      0             -4.5629096      9.8846388    
     10000   0.92675557    -5.9558959      0             -4.5696241      10.169365    
     10000   0.92675557    -5.9558959      0             -4.5696241      10.169365    
     10000   0.92675557    -5.9558959      0             -4.5696241      10.169365    
     10000   0.92675557    -5.9558959      0             -4.5696241      10.169365    
     18000   0.99665514    -5.9401912      0             -4.4493612      10.200412    
      8000   0.96568417    -6.0074122      0             -4.5629096      9.8846388    
     18000   0.99665514    -5.9401912      0             -4.4493612      10.200412    
     10000   0.92675557    -5.9558959      0             -4.5696241      10.169365    
     12000   0.96596372    -5.9045924      0             -4.4596716      10.610339    
     10000   0.92675557    -5.9558959      0             -4.5696241      10.169365    
     22000   1.0119193     -5.9170116      0             -4.403349       10.519465    
     12000   0.96596372    -5.9045924      0             -4.4596716      10.610339    
     12000   0.96596372    -5.9045924      0             -4.4596716      10.610339    
     12000   0.96596372    -5.9045924      0             -4.4596716      10.610339    
     20000   0.98337306    -6.1363741      0             -4.6654119      8.9669356    
     10000   0.92675557    -5.9558959      0             -4.5696241      10.169365    
     12000   0.96596372    -5.9045924      0             -4.4596716      10.610339    
     20000   0.98337306    -6.1363741      0             -4.6654119      8.9669356    
     14000   1.0223424     -6.0401915      0             -4.5109376      9.5563327    
     24000   0.99573311    -6.0069238      0             -4.5174731      9.8218456    
     12000   0.96596372    -5.9045924      0             -4.4596716      10.610339    
     14000   1.0223424     -6.0401915      0             -4.5109376      9.5563327    
     14000   1.0223424     -6.0401915      0             -4.5109376      9.5563327    
     14000   1.0223424     -6.0401915      0             -4.5109376      9.5563327    
     22000   1.0119193     -5.9170116      0             -4.403349       10.519465    
     12000   0.96596372    -5.9045924      0             -4.4596716      10.610339    
     22000   1.0119193     -5.9170116      0             -4.403349       10.519465    
     14000   1.0223424     -6.0401915      0             -4.5109376      9.5563327    
     14000   1.0223424     -6.0401915      0             -4.5109376      9.5563327    
     26000   0.96723515    -6.1316945      0             -4.6848719      9.0337882    
     16000   0.99652109    -6.0540627      0             -4.5634332      9.7218841    
     16000   0.99652109    -6.0540627      0             -4.5634332      9.7218841    
     16000   0.99652109    -6.0540627      0             -4.5634332      9.7218841    
     16000   0.99652109    -6.0540627      0             -4.5634332      9.7218841    
     24000   0.99573311    -6.0069238      0             -4.5174731      9.8218456    
     14000   1.0223424     -6.0401915      0             -4.5109376      9.5563327    
     24000   0.99573311    -6.0069238      0             -4.5174731      9.8218456    
     16000   0.99652109    -6.0540627      0             -4.5634332      9.7218841    
     28000   0.90749342    -5.9917288      0             -4.6342699      9.9810955    
     18000   0.99665514    -5.9401912      0             -4.4493612      10.200412    
     18000   0.99665514    -5.9401912      0             -4.4493612      10.200412    
     16000   0.99652109    -6.0540627      0             -4.5634332      9.7218841    
     18000   0.99665514    -5.9401912      0             -4.4493612      10.200412    
     18000   0.99665514    -5.9401912      0             -4.4493612      10.200412    
     26000   0.96723515    -6.1316945      0             -4.6848719      9.0337882    
     16000   0.99652109    -6.0540627      0             -4.5634332      9.7218841    
     26000   0.96723515    -6.1316945      0             -4.6848719      9.0337882    
     18000   0.99665514    -5.9401912      0             -4.4493612      10.200412    
     30000   1.0018193     -5.9051069      0             -4.4065522      10.531491    
     20000   0.98337306    -6.1363741      0             -4.6654119      8.9669356    
     18000   0.99665514    -5.9401912      0             -4.4493612      10.200412    
     20000   0.98337306    -6.1363741      0             -4.6654119      8.9669356    
     20000   0.98337306    -6.1363741      0             -4.6654119      8.9669356    
     20000   0.98337306    -6.1363741      0             -4.6654119      8.9669356    
     28000   0.90749342    -5.9917288      0             -4.6342699      9.9810955    
     18000   0.99665514    -5.9401912      0             -4.4493612      10.200412    
     28000   0.90749342    -5.9917288      0             -4.6342699      9.9810955    
     22000   1.0119193     -5.9170116      0             -4.403349       10.519465    
     32000   1.0452058     -6.0230304      0             -4.4595767      9.7148835    
     22000   1.0119193     -5.9170116      0             -4.403349       10.519465    
     22000   1.0119193     -5.9170116      0             -4.403349       10.519465    
     20000   0.98337306    -6.1363741      0             -4.6654119      8.9669356    
     22000   1.0119193     -5.9170116      0             -4.403349       10.519465    
     20000   0.98337306    -6.1363741      0             -4.6654119      8.9669356    
     30000   1.0018193     -5.9051069      0             -4.4065522      10.531491    
     24000   0.99573311    -6.0069238      0             -4.5174731      9.8218456    
     20000   0.98337306    -6.1363741      0             -4.6654119      8.9669356    
     30000   1.0018193     -5.9051069      0             -4.4065522      10.531491    
     32000   1.0452058     -6.0230304      0             -4.4595767      9.7148835    
     24000   0.99573311    -6.0069238      0             -4.5174731      9.8218456    
     34000   1.0204785     -6.0428749      0             -4.5164091      9.7182201    
     36000   1.1079762     -6.0221076      0             -4.3647598      9.8842126    
     22000   1.0119193     -5.9170116      0             -4.403349       10.519465    
     32000   1.0452058     -6.0230304      0             -4.4595767      9.7148835    
     34000   1.0204785     -6.0428749      0             -4.5164091      9.7182201    
     26000   0.96723515    -6.1316945      0             -4.6848719      9.0337882    
     24000   0.99573311    -6.0069238      0             -4.5174731      9.8218456    
     34000   1.0204785     -6.0428749      0             -4.5164091      9.7182201    
     24000   0.99573311    -6.0069238      0             -4.5174731      9.8218456    
     26000   0.96723515    -6.1316945      0             -4.6848719      9.0337882    
     22000   1.0119193     -5.9170116      0             -4.403349       10.519465    
     38000   0.94012802    -5.9890377      0             -4.5827628      9.9176246    
     40000   0.96990444    -5.8919484      0             -4.441133       10.641226    
     36000   1.1079762     -6.0221076      0             -4.3647598      9.8842126    
     38000   0.94012802    -5.9890377      0             -4.5827628      9.9176246    
     36000   1.1079762     -6.0221076      0             -4.3647598      9.8842126    
     22000   1.0119193     -5.9170116      0             -4.403349       10.519465    
     28000   0.90749342    -5.9917288      0             -4.6342699      9.9810955    
     38000   0.94012802    -5.9890377      0             -4.5827628      9.9176246    
     24000   0.99573311    -6.0069238      0             -4.5174731      9.8218456    
     26000   0.96723515    -6.1316945      0             -4.6848719      9.0337882    
     28000   0.90749342    -5.9917288      0             -4.6342699      9.9810955    
     24000   0.99573311    -6.0069238      0             -4.5174731      9.8218456    
     40000   0.96990444    -5.8919484      0             -4.441133       10.641226    
     42000   1.0037726     -5.9894059      0             -4.4879293      9.903414     
     40000   0.96990444    -5.8919484      0             -4.441133       10.641226    
     28000   0.90749342    -5.9917288      0             -4.6342699      9.9810955    
     30000   1.0018193     -5.9051069      0             -4.4065522      10.531491    
     26000   0.96723515    -6.1316945      0             -4.6848719      9.0337882    
     26000   0.96723515    -6.1316945      0             -4.6848719      9.0337882    
     28000   0.90749342    -5.9917288      0             -4.6342699      9.9810955    
     44000   0.98916601    -5.9624316      0             -4.4828041      10.179936    
     46000   0.94458068    -6.0144283      0             -4.6014931      9.8800052    
     42000   1.0037726     -5.9894059      0             -4.4879293      9.903414     
     32000   1.0452058     -6.0230304      0             -4.4595767      9.7148835    
     24000   0.99573311    -6.0069238      0             -4.5174731      9.8218456    
     26000   0.96723515    -6.1316945      0             -4.6848719      9.0337882    
     28000   0.90749342    -5.9917288      0             -4.6342699      9.9810955    
     42000   1.0037726     -5.9894059      0             -4.4879293      9.903414     
     44000   0.98916601    -5.9624316      0             -4.4828041      10.179936    
     44000   0.98916601    -5.9624316      0             -4.4828041      10.179936    
     34000   1.0204785     -6.0428749      0             -4.5164091      9.7182201    
     36000   1.1079762     -6.0221076      0             -4.3647598      9.8842126    
     26000   0.96723515    -6.1316945      0             -4.6848719      9.0337882    
     28000   0.90749342    -5.9917288      0             -4.6342699      9.9810955    
     30000   1.0018193     -5.9051069      0             -4.4065522      10.531491    
     32000   1.0452058     -6.0230304      0             -4.4595767      9.7148835    
     48000   1.0372152     -5.9737274      0             -4.4222263      10.205191    
     46000   0.94458068    -6.0144283      0             -4.6014931      9.8800052    
     28000   0.90749342    -5.9917288      0             -4.6342699      9.9810955    
     30000   1.0018193     -5.9051069      0             -4.4065522      10.531491    
     32000   1.0452058     -6.0230304      0             -4.4595767      9.7148835    
     34000   1.0204785     -6.0428749      0             -4.5164091      9.7182201    
     36000   1.1079762     -6.0221076      0             -4.3647598      9.8842126    
     46000   0.94458068    -6.0144283      0             -4.6014931      9.8800052    
     48000   1.0372152     -5.9737274      0             -4.4222263      10.205191    
     30000   1.0018193     -5.9051069      0             -4.4065522      10.531491    
     50000   0.90216103    -5.958117       0             -4.6086344      10.094231    
Loop time of 4.61857 on 4 procs for 50000 steps with 360 atoms

Performance: 1870709.819 tau/day, 10825.867 timesteps/s, 3.897 Matom-step/s
98.9% CPU use with 4 MPI tasks x 1 OpenMP threads

MPI task timing breakdown:
Section |  min time  |  avg time  |  max time  |%varavg| %total
---------------------------------------------------------------
Pair    | 2.4994     | 2.5232     | 2.575      |   1.9 | 54.63
Neigh   | 0.22362    | 0.22518    | 0.22733    |   0.3 |  4.88
Comm    | 1.4642     | 1.5133     | 1.5348     |   2.3 | 32.77
Output  | 0.14481    | 0.14487    | 0.14507    |   0.0 |  3.14
Modify  | 0.14603    | 0.15061    | 0.15506    |   0.9 |  3.26
Other   |            | 0.0614     |            |       |  1.33

Nlocal:             90 ave          94 max          85 min
Histogram: 1 0 0 0 1 0 0 1 0 1
Nghost:           1242 ave        1253 max        1222 min
Histogram: 1 0 0 0 0 1 0 0 0 2
Neighs:        5191.25 ave        5519 max        4911 min
Histogram: 1 0 0 1 0 1 0 0 0 1

Total # of neighbors = 20765
Ave neighs/atom = 57.680556
Neighbor list builds = 1354
Dangerous builds = 0
     38000   0.94012802    -5.9890377      0             -4.5827628      9.9176246    
     34000   1.0204785     -6.0428749      0             -4.5164091      9.7182201    
     36000   1.1079762     -6.0221076      0             -4.3647598      9.8842126    
     38000   0.94012802    -5.9890377      0             -4.5827628      9.9176246    
Total wall time: 0:00:04
     50000   0.90216103    -5.958117       0             -4.6086344      10.094231    
Loop time of 4.47722 on 4 procs for 50000 steps with 360 atoms

Performance: 1929768.296 tau/day, 11167.641 timesteps/s, 4.020 Matom-step/s
99.4% CPU use with 4 MPI tasks x 1 OpenMP threads

MPI task timing breakdown:
Section |  min time  |  avg time  |  max time  |%varavg| %total
---------------------------------------------------------------
Pair    | 2.4835     | 2.5162     | 2.5457     |   1.5 | 56.20
Neigh   | 0.22257    | 0.22484    | 0.2272     |   0.4 |  5.02
Comm    | 1.4497     | 1.4784     | 1.5119     |   1.9 | 33.02
Output  | 0.049897   | 0.049933   | 0.050016   |   0.0 |  1.12
Modify  | 0.14103    | 0.14732    | 0.15318    |   1.2 |  3.29
Other   |            | 0.06046    |            |       |  1.35

Nlocal:             90 ave          94 max          85 min
Histogram: 1 0 0 0 1 0 0 1 0 1
Nghost:           1242 ave        1253 max        1222 min
Histogram: 1 0 0 0 0 1 0 0 0 2
Neighs:        5191.25 ave        5519 max        4911 min
Histogram: 1 0 0 1 0 1 0 0 0 1

Total # of neighbors = 20765
Ave neighs/atom = 57.680556
Neighbor list builds = 1354
Dangerous builds = 0
     30000   1.0018193     -5.9051069      0             -4.4065522      10.531491    
     32000   1.0452058     -6.0230304      0             -4.4595767      9.7148835    
     34000   1.0204785     -6.0428749      0             -4.5164091      9.7182201    
     40000   0.96990444    -5.8919484      0             -4.441133       10.641226    
     48000   1.0372152     -5.9737274      0             -4.4222263      10.205191    
Total wall time: 0:00:04
     30000   1.0018193     -5.9051069      0             -4.4065522      10.531491    
     32000   1.0452058     -6.0230304      0             -4.4595767      9.7148835    
     34000   1.0204785     -6.0428749      0             -4.5164091      9.7182201    
     42000   1.0037726     -5.9894059      0             -4.4879293      9.903414     
     40000   0.96990444    -5.8919484      0             -4.441133       10.641226    
     42000   1.0037726     -5.9894059      0             -4.4879293      9.903414     
     50000   0.90216103    -5.958117       0             -4.6086344      10.094231    
Loop time of 4.76197 on 4 procs for 50000 steps with 360 atoms

Performance: 1814373.371 tau/day, 10499.846 timesteps/s, 3.780 Matom-step/s
98.4% CPU use with 4 MPI tasks x 1 OpenMP threads

MPI task timing breakdown:
Section |  min time  |  avg time  |  max time  |%varavg| %total
---------------------------------------------------------------
Pair    | 2.4975     | 2.5587     | 2.6336     |   3.1 | 53.73
Neigh   | 0.22376    | 0.22655    | 0.2292     |   0.4 |  4.76
Comm    | 1.4442     | 1.5253     | 1.5956     |   4.4 | 32.03
Output  | 0.23704    | 0.2371     | 0.23728    |   0.0 |  4.98
Modify  | 0.14476    | 0.15167    | 0.15949    |   1.5 |  3.19
Other   |            | 0.06259    |            |       |  1.31

Nlocal:             90 ave          94 max          85 min
Histogram: 1 0 0 0 1 0 0 1 0 1
Nghost:           1242 ave        1253 max        1222 min
Histogram: 1 0 0 0 0 1 0 0 0 2
Neighs:        5191.25 ave        5519 max        4911 min
Histogram: 1 0 0 1 0 1 0 0 0 1

Total # of neighbors = 20765
Ave neighs/atom = 57.680556
Neighbor list builds = 1354
Dangerous builds = 0
Total wall time: 0:00:04
LAMMPS (15 Sep 2022)
     44000   0.98916601    -5.9624316      0             -4.4828041      10.179936    
     30000   1.0018193     -5.9051069      0             -4.4065522      10.531491    
     32000   1.0452058     -6.0230304      0             -4.4595767      9.7148835    
     34000   1.0204785     -6.0428749      0             -4.5164091      9.7182201    
     36000   1.1079762     -6.0221076      0             -4.3647598      9.8842126    
OMP_NUM_THREADS environment is not set. Defaulting to 1 thread. (src/comm.cpp:98)
  using 1 OpenMP thread(s) per MPI task
Reading restart file ...
ERROR: Invalid LAMMPS restart file (src/read_restart.cpp:1124)
Last command: read_restart ${prevbasename}.final.lmprestart.${prevsteps}
     38000   0.94012802    -5.9890377      0             -4.5827628      9.9176246    
     40000   0.96990444    -5.8919484      0             -4.441133       10.641226    
     42000   1.0037726     -5.9894059      0             -4.4879293      9.903414     
LAMMPS (15 Sep 2022)
OMP_NUM_THREADS environment is not set. Defaulting to 1 thread. (src/comm.cpp:98)
  using 1 OpenMP thread(s) per MPI task
Reading restart file ...
     46000   0.94458068    -6.0144283      0             -4.6014931      9.8800052    
     44000   0.98916601    -5.9624316      0             -4.4828041      10.179936    
     46000   0.94458068    -6.0144283      0             -4.6014931      9.8800052    
     38000   0.94012802    -5.9890377      0             -4.5827628      9.9176246    
     40000   0.96990444    -5.8919484      0             -4.441133       10.641226    
     42000   1.0037726     -5.9894059      0             -4.4879293      9.903414     
     44000   0.98916601    -5.9624316      0             -4.4828041      10.179936    
     46000   0.94458068    -6.0144283      0             -4.6014931      9.8800052    
     48000   1.0372152     -5.9737274      0             -4.4222263      10.205191    
     50000   0.90216103    -5.958117       0             -4.6086344      10.094231    
Loop time of 4.1854 on 4 procs for 50000 steps with 360 atoms

Performance: 2064319.560 tau/day, 11946.294 timesteps/s, 4.301 Matom-step/s
99.6% CPU use with 4 MPI tasks x 1 OpenMP threads

MPI task timing breakdown:
Section |  min time  |  avg time  |  max time  |%varavg| %total
---------------------------------------------------------------
Pair    | 2.5644     | 2.6062     | 2.6535     |   2.0 | 62.27
Neigh   | 0.22978    | 0.23285    | 0.23526    |   0.4 |  5.56
Comm    | 1.1225     | 1.1726     | 1.2172     |   3.1 | 28.02
Output  | 0.0046695  | 0.0047152  | 0.0048508  |   0.1 |  0.11
Modify  | 0.11654    | 0.11865    | 0.12033    |   0.4 |  2.83
Other   |            | 0.05038    |            |       |  1.20

Nlocal:             90 ave          94 max          85 min
Histogram: 1 0 0 0 1 0 0 1 0 1
Nghost:           1242 ave        1253 max        1222 min
Histogram: 1 0 0 0 0 1 0 0 0 2
Neighs:        5191.25 ave        5519 max        4911 min
Histogram: 1 0 0 1 0 1 0 0 0 1

Total # of neighbors = 20765
Ave neighs/atom = 57.680556
Neighbor list builds = 1354
Dangerous builds = 0
Total wall time: 0:00:04
  restart file = 15 Sep 2022, LAMMPS = 15 Sep 2022
  restoring atom style atomic from restart
  orthogonal box = (0 0 0) to (6.6943295 6.6943295 6.6943295)
  1 by 2 by 2 MPI processor grid
  restoring pair style lj/cut from restart
  360 atoms
  read_restart CPU = 0.004 seconds
Setting up annealing run
Resetting global fix info from restart file:
  fix style: nvt, fix ID: 1
Generated 0 of 1 mixed pair_coeff terms from geometric mixing rule
All restart file global fix info was re-assigned
Neighbor list info ...
  update: every = 1 steps, delay = 25 steps, check = yes
  max neighbors/atom: 2000, page size: 100000
  master list distance cutoff = 3
  ghost atom cutoff = 3
  binsize = 1.5, bins = 5 5 5
  1 neighbor lists, perpetual/occasional/extra = 1 0 0
  (1) pair lj/cut, perpetual
      attributes: half, newton on
      pair build: half/bin/atomonly/newton
      stencil: half/bin/3d
      bin: standard
Setting up Verlet run ...
  Unit style    : lj
  Current step  : 0
  Time step     : 0.002
Per MPI rank memory allocation (min/avg/max) = 4.115 | 4.116 | 4.116 Mbytes
   Step          Temp          E_pair         E_mol          TotEng         Press     
         0   0.9           -5.958117       0             -4.611867       10.091645    
--------------------------------------------------------------------------
Primary job  terminated normally, but 1 process returned
a non-zero exit code. Per user-direction, the job has been aborted.
--------------------------------------------------------------------------
     36000   1.1079762     -6.0221076      0             -4.3647598      9.8842126    
     38000   0.94012802    -5.9890377      0             -4.5827628      9.9176246    
     40000   0.96990444    -5.8919484      0             -4.441133       10.641226    
     42000   1.0037726     -5.9894059      0             -4.4879293      9.903414     
     44000   0.98916601    -5.9624316      0             -4.4828041      10.179936    
     46000   0.94458068    -6.0144283      0             -4.6014931      9.8800052    
     48000   1.0372152     -5.9737274      0             -4.4222263      10.205191    
LAMMPS (15 Sep 2022)
OMP_NUM_THREADS environment is not set. Defaulting to 1 thread. (src/comm.cpp:98)
  using 1 OpenMP thread(s) per MPI task
--------------------------------------------------------------------------
mpirun detected that one or more processes exited with non-zero status, thus causing
the job to be terminated. The first process to do so was:

  Process name: [[37203,1],0]
  Exit code:    1
--------------------------------------------------------------------------
     44000   0.98916601    -5.9624316      0             -4.4828041      10.179936    
     46000   0.94458068    -6.0144283      0             -4.6014931      9.8800052    
     48000   1.0372152     -5.9737274      0             -4.4222263      10.205191    
     50000   0.90216103    -5.958117       0             -4.6086344      10.094231    
Loop time of 4.15671 on 4 procs for 50000 steps with 360 atoms

Performance: 2078565.388 tau/day, 12028.735 timesteps/s, 4.330 Matom-step/s
99.5% CPU use with 4 MPI tasks x 1 OpenMP threads

MPI task timing breakdown:
Section |  min time  |  avg time  |  max time  |%varavg| %total
---------------------------------------------------------------
Pair    | 2.5713     | 2.5858     | 2.6098     |   0.9 | 62.21
Neigh   | 0.23027    | 0.23221    | 0.23409    |   0.3 |  5.59
Comm    | 1.137      | 1.1559     | 1.1758     |   1.3 | 27.81
Output  | 0.013652   | 0.013696   | 0.013821   |   0.1 |  0.33
Modify  | 0.11141    | 0.11957    | 0.12676    |   1.7 |  2.88
Other   |            | 0.04964    |            |       |  1.19

Nlocal:             90 ave          94 max          85 min
Histogram: 1 0 0 0 1 0 0 1 0 1
Nghost:           1242 ave        1253 max        1222 min
Histogram: 1 0 0 0 0 1 0 0 0 2
Neighs:        5191.25 ave        5519 max        4911 min
Histogram: 1 0 0 1 0 1 0 0 0 1

Total # of neighbors = 20765
Ave neighs/atom = 57.680556
Neighbor list builds = 1354
Dangerous builds = 0
Total wall time: 0:00:04
Reading restart file ...
     48000   1.0372152     -5.9737274      0             -4.4222263      10.205191    
     36000   1.1079762     -6.0221076      0             -4.3647598      9.8842126    
     38000   0.94012802    -5.9890377      0             -4.5827628      9.9176246    
  restart file = 15 Sep 2022, LAMMPS = 15 Sep 2022
  restoring atom style atomic from restart
  orthogonal box = (0 0 0) to (6.6943295 6.6943295 6.6943295)
  1 by 2 by 2 MPI processor grid
  restoring pair style lj/cut from restart
  360 atoms
  read_restart CPU = 0.004 seconds
Setting up annealing run
Resetting global fix info from restart file:
  fix style: nvt, fix ID: 1
Generated 0 of 1 mixed pair_coeff terms from geometric mixing rule
All restart file global fix info was re-assigned
Neighbor list info ...
  update: every = 1 steps, delay = 25 steps, check = yes
  max neighbors/atom: 2000, page size: 100000
  master list distance cutoff = 3
  ghost atom cutoff = 3
  binsize = 1.5, bins = 5 5 5
  1 neighbor lists, perpetual/occasional/extra = 1 0 0
  (1) pair lj/cut, perpetual
      attributes: half, newton on
      pair build: half/bin/atomonly/newton
      stencil: half/bin/3d
      bin: standard
Setting up Verlet run ...
  Unit style    : lj
  Current step  : 0
  Time step     : 0.002
Per MPI rank memory allocation (min/avg/max) = 4.115 | 4.116 | 4.116 Mbytes
   Step          Temp          E_pair         E_mol          TotEng         Press     
         0   0.9           -5.958117       0             -4.611867       10.091645    
     50000   0.90216103    -5.958117       0             -4.6086344      10.094231    
Loop time of 4.15659 on 4 procs for 50000 steps with 360 atoms

Performance: 2078627.242 tau/day, 12029.093 timesteps/s, 4.330 Matom-step/s
99.5% CPU use with 4 MPI tasks x 1 OpenMP threads

MPI task timing breakdown:
Section |  min time  |  avg time  |  max time  |%varavg| %total
---------------------------------------------------------------
Pair    | 2.5752     | 2.5872     | 2.601      |   0.7 | 62.24
Neigh   | 0.22986    | 0.23234    | 0.23478    |   0.4 |  5.59
Comm    | 1.1328     | 1.1486     | 1.1616     |   1.1 | 27.63
Output  | 0.019418   | 0.019465   | 0.019598   |   0.1 |  0.47
Modify  | 0.11551    | 0.11866    | 0.12109    |   0.7 |  2.85
Other   |            | 0.0503     |            |       |  1.21

Nlocal:             90 ave          94 max          85 min
Histogram: 1 0 0 0 1 0 0 1 0 1
Nghost:           1242 ave        1253 max        1222 min
Histogram: 1 0 0 0 0 1 0 0 0 2
Neighs:        5191.25 ave        5519 max        4911 min
Histogram: 1 0 0 1 0 1 0 0 0 1

Total # of neighbors = 20765
Ave neighs/atom = 57.680556
Neighbor list builds = 1354
Dangerous builds = 0
Total wall time: 0:00:04
     48000   1.0372152     -5.9737274      0             -4.4222263      10.205191    
     50000   0.90216103    -5.958117       0             -4.6086344      10.094231    
Loop time of 4.5817 on 4 procs for 50000 steps with 360 atoms

Performance: 1885762.603 tau/day, 10912.978 timesteps/s, 3.929 Matom-step/s
99.6% CPU use with 4 MPI tasks x 1 OpenMP threads

MPI task timing breakdown:
Section |  min time  |  avg time  |  max time  |%varavg| %total
---------------------------------------------------------------
Pair    | 2.5621     | 2.5899     | 2.6344     |   1.7 | 56.53
Neigh   | 0.2297     | 0.23181    | 0.23383    |   0.3 |  5.06
Comm    | 1.5008     | 1.5393     | 1.5688     |   2.0 | 33.60
Output  | 0.0053017  | 0.0053543  | 0.0055056  |   0.1 |  0.12
Modify  | 0.14329    | 0.15298    | 0.1633     |   1.8 |  3.34
Other   |            | 0.06229    |            |       |  1.36

Nlocal:             90 ave          94 max          85 min
Histogram: 1 0 0 0 1 0 0 1 0 1
Nghost:           1242 ave        1253 max        1222 min
Histogram: 1 0 0 0 0 1 0 0 0 2
Neighs:        5191.25 ave        5519 max        4911 min
Histogram: 1 0 0 1 0 1 0 0 0 1

Total # of neighbors = 20765
Ave neighs/atom = 57.680556
Neighbor list builds = 1354
Dangerous builds = 0
Total wall time: 0:00:04
     32000   1.0452058     -6.0230304      0             -4.4595767      9.7148835    
     34000   1.0204785     -6.0428749      0             -4.5164091      9.7182201    
     36000   1.1079762     -6.0221076      0             -4.3647598      9.8842126    
     38000   0.94012802    -5.9890377      0             -4.5827628      9.9176246    
     40000   0.96990444    -5.8919484      0             -4.441133       10.641226    
     42000   1.0037726     -5.9894059      0             -4.4879293      9.903414     
     44000   0.98916601    -5.9624316      0             -4.4828041      10.179936    
     46000   0.94458068    -6.0144283      0             -4.6014931      9.8800052    
     48000   1.0372152     -5.9737274      0             -4.4222263      10.205191    
[...]
  27300000   0.45898289    -6.9343374      0             -6.2477755      3.5413128    
  26100000   0.51608352    -6.9619326      0             -6.1899577      3.3166931    
  27000000   0.44693864    -6.9647896      0             -6.2962439      3.3448129    
  24900000   0.45303478    -6.9248636      0             -6.2471991      3.7773644    
  23400000   0.45792969    -6.9207587      0             -6.2357722      3.7285316    
  29400000   0.45849809    -6.8792465      0             -6.1934098      3.8687646    
  25200000   0.47415137    -6.9833624      0             -6.2741109      3.219385     
  26700000   0.43545245    -6.9714207      0             -6.3200565      3.2727838    
  29100000   0.48111705    -6.9642645      0             -6.2445936      3.5328805    
  27600000   0.45547496    -6.8994978      0             -6.2181831      3.6703566    
  26400000   0.46593631    -6.9615625      0             -6.2645994      3.2882537    
  27300000   0.45898289    -6.9343374      0             -6.2477755      3.5413128    
  29700000   0.48171341    -6.9554123      0             -6.2348494      3.4320096    
  25200000   0.47415137    -6.9833624      0             -6.2741109      3.219385     
  25500000   0.4616765     -6.9616004      0             -6.2710094      3.370192     
  23700000   0.47664399    -6.9677263      0             -6.2547464      3.3794162    
  27000000   0.44693864    -6.9647896      0             -6.2962439      3.3448129    
  29400000   0.45849809    -6.8792465      0             -6.1934098      3.8687646    
  27900000   0.48381168    -6.951864       0             -6.2281624      3.3611894    
  26700000   0.43545245    -6.9714207      0             -6.3200565      3.2727838    
  30000000   0.46452507    -6.9368852      0             -6.2420331      3.6247444    
Loop time of 2468.67 on 4 procs for 30000000 steps with 360 atoms

Performance: 3149877.277 tau/day, 12152.304 timesteps/s, 4.375 Matom-step/s
99.6% CPU use with 4 MPI tasks x 1 OpenMP threads

MPI task timing breakdown:
Section |  min time  |  avg time  |  max time  |%varavg| %total
---------------------------------------------------------------
Pair    | 1525.9     | 1539.7     | 1548.2     |  21.3 | 62.37
Neigh   | 130.13     | 131.17     | 131.86     |   5.6 |  5.31
Comm    | 688.98     | 698.53     | 711.14     |  30.2 | 28.30
Output  | 0.22468    | 0.22548    | 0.22787    |   0.3 |  0.01
Modify  | 70.99      | 72.203     | 74.472     |  16.4 |  2.92
Other   |            | 26.87      |            |       |  1.09

Nlocal:             90 ave          92 max          87 min
Histogram: 1 0 0 0 1 0 0 0 0 2
Nghost:        1240.25 ave        1262 max        1215 min
Histogram: 1 0 0 0 0 2 0 0 0 1
Neighs:         5196.5 ave        5430 max        5029 min
Histogram: 1 1 0 0 0 1 0 0 0 1

Total # of neighbors = 20786
Ave neighs/atom = 57.738889
Neighbor list builds = 769866
Dangerous builds = 960
Total wall time: 0:41:08
  27600000   0.45547496    -6.8994978      0             -6.2181831      3.6703566    
  25500000   0.4616765     -6.9616004      0             -6.2710094      3.370192     
  25800000   0.46215518    -6.924923       0             -6.2336158      3.4981932    
  29700000   0.48171341    -6.9554123      0             -6.2348494      3.4320096    
  27300000   0.45898289    -6.9343374      0             -6.2477755      3.5413128    
  24000000   0.50341318    -6.9048378      0             -6.1518156      3.8084334    
  28200000   0.48419505    -6.9162979      0             -6.1920228      3.5812589    
  27000000   0.44693864    -6.9647896      0             -6.2962439      3.3448129    
  27900000   0.48381168    -6.951864       0             -6.2281624      3.3611894    
  25800000   0.46215518    -6.924923       0             -6.2336158      3.4981932    
  30000000   0.46452507    -6.9368852      0             -6.2420331      3.6247444    
Loop time of 2486.82 on 4 procs for 30000000 steps with 360 atoms

Performance: 3126885.280 tau/day, 12063.601 timesteps/s, 4.343 Matom-step/s
99.6% CPU use with 4 MPI tasks x 1 OpenMP threads

MPI task timing breakdown:
Section |  min time  |  avg time  |  max time  |%varavg| %total
---------------------------------------------------------------
Pair    | 1524.9     | 1543.5     | 1567.8     |  40.0 | 62.07
Neigh   | 130.36     | 131.5      | 133.43     |  10.2 |  5.29
Comm    | 686.36     | 712.32     | 731.03     |  61.2 | 28.64
Output  | 0.13297    | 0.13336    | 0.13451    |   0.2 |  0.01
Modify  | 70.757     | 72.298     | 73.429     |  12.6 |  2.91
Other   |            | 27.1       |            |       |  1.09

Nlocal:             90 ave          92 max          87 min
Histogram: 1 0 0 0 1 0 0 0 0 2
Nghost:        1240.25 ave        1262 max        1215 min
Histogram: 1 0 0 0 0 2 0 0 0 1
Neighs:         5196.5 ave        5430 max        5029 min
Histogram: 1 1 0 0 0 1 0 0 0 1

Total # of neighbors = 20786
Ave neighs/atom = 57.738889
Neighbor list builds = 769866
Dangerous builds = 960
Total wall time: 0:41:26
  26100000   0.51608352    -6.9619326      0             -6.1899577      3.3166931    
  27600000   0.45547496    -6.8994978      0             -6.2181831      3.6703566    
  24300000   0.48859356    -6.9825511      0             -6.2516966      3.4680165    
  28500000   0.50736256    -6.9130399      0             -6.15411        3.7415669    
  27300000   0.45898289    -6.9343374      0             -6.2477755      3.5413128    
  28200000   0.48419505    -6.9162979      0             -6.1920228      3.5812589    
  26100000   0.51608352    -6.9619326      0             -6.1899577      3.3166931    
  26400000   0.46593631    -6.9615625      0             -6.2645994      3.2882537    
  27900000   0.48381168    -6.951864       0             -6.2281624      3.3611894    
  24600000   0.44487209    -6.9330531      0             -6.2675986      3.4848737    
  28800000   0.48601277    -6.953131       0             -6.2261369      3.4174187    
  27600000   0.45547496    -6.8994978      0             -6.2181831      3.6703566    
  28500000   0.50736256    -6.9130399      0             -6.15411        3.7415669    
  26400000   0.46593631    -6.9615625      0             -6.2645994      3.2882537    
  26700000   0.43545245    -6.9714207      0             -6.3200565      3.2727838    
  28200000   0.48419505    -6.9162979      0             -6.1920228      3.5812589    
  24900000   0.45303478    -6.9248636      0             -6.2471991      3.7773644    
  29100000   0.48111705    -6.9642645      0             -6.2445936      3.5328805    
  27900000   0.48381168    -6.951864       0             -6.2281624      3.3611894    
  28800000   0.48601277    -6.953131       0             -6.2261369      3.4174187    
  26700000   0.43545245    -6.9714207      0             -6.3200565      3.2727838    
  28500000   0.50736256    -6.9130399      0             -6.15411        3.7415669    
  27000000   0.44693864    -6.9647896      0             -6.2962439      3.3448129    
  25200000   0.47415137    -6.9833624      0             -6.2741109      3.219385     
  29400000   0.45849809    -6.8792465      0             -6.1934098      3.8687646    
  28200000   0.48419505    -6.9162979      0             -6.1920228      3.5812589    
  29100000   0.48111705    -6.9642645      0             -6.2445936      3.5328805    
  27000000   0.44693864    -6.9647896      0             -6.2962439      3.3448129    
  28800000   0.48601277    -6.953131       0             -6.2261369      3.4174187    
  27300000   0.45898289    -6.9343374      0             -6.2477755      3.5413128    
  29700000   0.48171341    -6.9554123      0             -6.2348494      3.4320096    
  25500000   0.4616765     -6.9616004      0             -6.2710094      3.370192     
  29400000   0.45849809    -6.8792465      0             -6.1934098      3.8687646    
  28500000   0.50736256    -6.9130399      0             -6.15411        3.7415669    
  27300000   0.45898289    -6.9343374      0             -6.2477755      3.5413128    
  29100000   0.48111705    -6.9642645      0             -6.2445936      3.5328805    
  27600000   0.45547496    -6.8994978      0             -6.2181831      3.6703566    
  30000000   0.46452507    -6.9368852      0             -6.2420331      3.6247444    
Loop time of 2636.47 on 4 procs for 30000000 steps with 360 atoms

Performance: 2949394.087 tau/day, 11378.835 timesteps/s, 4.096 Matom-step/s
99.6% CPU use with 4 MPI tasks x 1 OpenMP threads

MPI task timing breakdown:
Section |  min time  |  avg time  |  max time  |%varavg| %total
---------------------------------------------------------------
Pair    | 1524.8     | 1578.2     | 1708.3     | 189.8 | 59.86
Neigh   | 130.05     | 134.46     | 145.56     |  55.4 |  5.10
Comm    | 679.91     | 818.43     | 875.67     | 280.6 | 31.04
Output  | 0.12038    | 0.12073    | 0.12176    |   0.2 |  0.00
Modify  | 72.971     | 77.214     | 83.024     |  45.3 |  2.93
Other   |            | 28.05      |            |       |  1.06

Nlocal:             90 ave          92 max          87 min
Histogram: 1 0 0 0 1 0 0 0 0 2
Nghost:        1240.25 ave        1262 max        1215 min
Histogram: 1 0 0 0 0 2 0 0 0 1
Neighs:         5196.5 ave        5430 max        5029 min
Histogram: 1 1 0 0 0 1 0 0 0 1

Total # of neighbors = 20786
Ave neighs/atom = 57.738889
Neighbor list builds = 769866
Dangerous builds = 960
Total wall time: 0:43:56
  25800000   0.46215518    -6.924923       0             -6.2336158      3.4981932    
  29700000   0.48171341    -6.9554123      0             -6.2348494      3.4320096    
  28800000   0.48601277    -6.953131       0             -6.2261369      3.4174187    
  27600000   0.45547496    -6.8994978      0             -6.2181831      3.6703566    
  29400000   0.45849809    -6.8792465      0             -6.1934098      3.8687646    
  27900000   0.48381168    -6.951864       0             -6.2281624      3.3611894    
  30000000   0.46452507    -6.9368852      0             -6.2420331      3.6247444    
Loop time of 2616.3 on 4 procs for 30000000 steps with 360 atoms

Performance: 2972139.298 tau/day, 11466.587 timesteps/s, 4.128 Matom-step/s
99.8% CPU use with 4 MPI tasks x 1 OpenMP threads

MPI task timing breakdown:
Section |  min time  |  avg time  |  max time  |%varavg| %total
---------------------------------------------------------------
Pair    | 1457.3     | 1481.9     | 1503       |  43.5 | 56.64
Neigh   | 124.44     | 125.7      | 127.2      |   9.2 |  4.80
Comm    | 867.7      | 888.74     | 915.41     |  59.2 | 33.97
Output  | 0.23242    | 0.23318    | 0.23544    |   0.3 |  0.01
Modify  | 87.195     | 88.292     | 89.151     |   7.5 |  3.37
Other   |            | 31.39      |            |       |  1.20

Nlocal:             90 ave          92 max          87 min
Histogram: 1 0 0 0 1 0 0 0 0 2
Nghost:        1240.25 ave        1262 max        1215 min
Histogram: 1 0 0 0 0 2 0 0 0 1
Neighs:         5196.5 ave        5430 max        5029 min
Histogram: 1 1 0 0 0 1 0 0 0 1

Total # of neighbors = 20786
Ave neighs/atom = 57.738889
Neighbor list builds = 769866
Dangerous builds = 960
Total wall time: 0:43:36
  26100000   0.51608352    -6.9619326      0             -6.1899577      3.3166931    
  29100000   0.48111705    -6.9642645      0             -6.2445936      3.5328805    
  29700000   0.48171341    -6.9554123      0             -6.2348494      3.4320096    
  27900000   0.48381168    -6.951864       0             -6.2281624      3.3611894    
  28200000   0.48419505    -6.9162979      0             -6.1920228      3.5812589    
  29400000   0.45849809    -6.8792465      0             -6.1934098      3.8687646    
  26400000   0.46593631    -6.9615625      0             -6.2645994      3.2882537    
  30000000   0.46452507    -6.9368852      0             -6.2420331      3.6247444    
Loop time of 2643.82 on 4 procs for 30000000 steps with 360 atoms

Performance: 2941197.968 tau/day, 11347.214 timesteps/s, 4.085 Matom-step/s
99.7% CPU use with 4 MPI tasks x 1 OpenMP threads

MPI task timing breakdown:
Section |  min time  |  avg time  |  max time  |%varavg| %total
---------------------------------------------------------------
Pair    | 1479.4     | 1495.4     | 1510.9     |  38.3 | 56.56
Neigh   | 125.6      | 126.71     | 128.13     |   8.5 |  4.79
Comm    | 883.5      | 898.64     | 914.82     |  49.6 | 33.99
Output  | 0.3103     | 0.31142    | 0.31477    |   0.3 |  0.01
Modify  | 89.35      | 90.01      | 91.303     |   8.0 |  3.40
Other   |            | 32.8       |            |       |  1.24

Nlocal:             90 ave          92 max          87 min
Histogram: 1 0 0 0 1 0 0 0 0 2
Nghost:        1240.25 ave        1262 max        1215 min
Histogram: 1 0 0 0 0 2 0 0 0 1
Neighs:         5196.5 ave        5430 max        5029 min
Histogram: 1 1 0 0 0 1 0 0 0 1

Total # of neighbors = 20786
Ave neighs/atom = 57.738889
Neighbor list builds = 769866
Dangerous builds = 960
Total wall time: 0:44:03
  28200000   0.48419505    -6.9162979      0             -6.1920228      3.5812589    
  28500000   0.50736256    -6.9130399      0             -6.15411        3.7415669    
  29700000   0.48171341    -6.9554123      0             -6.2348494      3.4320096    
  26700000   0.43545245    -6.9714207      0             -6.3200565      3.2727838    
  28500000   0.50736256    -6.9130399      0             -6.15411        3.7415669    
  28800000   0.48601277    -6.953131       0             -6.2261369      3.4174187    
  30000000   0.46452507    -6.9368852      0             -6.2420331      3.6247444    
Loop time of 2671.59 on 4 procs for 30000000 steps with 360 atoms

Performance: 2910629.366 tau/day, 11229.280 timesteps/s, 4.043 Matom-step/s
99.5% CPU use with 4 MPI tasks x 1 OpenMP threads

MPI task timing breakdown:
Section |  min time  |  avg time  |  max time  |%varavg| %total
---------------------------------------------------------------
Pair    | 1557.4     | 1566.2     | 1579.1     |  22.1 | 58.62
Neigh   | 133.38     | 134.41     | 135.29     |   5.9 |  5.03
Comm    | 824.13     | 835.86     | 843.93     |  28.4 | 31.29
Output  | 0.3626     | 0.36382    | 0.3675     |   0.4 |  0.01
Modify  | 95.983     | 97.799     | 100.15     |  15.7 |  3.66
Other   |            | 36.96      |            |       |  1.38

Nlocal:             90 ave          92 max          87 min
Histogram: 1 0 0 0 1 0 0 0 0 2
Nghost:        1240.25 ave        1262 max        1215 min
Histogram: 1 0 0 0 0 2 0 0 0 1
Neighs:         5196.5 ave        5430 max        5029 min
Histogram: 1 1 0 0 0 1 0 0 0 1

Total # of neighbors = 20786
Ave neighs/atom = 57.738889
Neighbor list builds = 769866
Dangerous builds = 960
Total wall time: 0:44:31
  27000000   0.44693864    -6.9647896      0             -6.2962439      3.3448129    
  28800000   0.48601277    -6.953131       0             -6.2261369      3.4174187    
  29100000   0.48111705    -6.9642645      0             -6.2445936      3.5328805    
  29100000   0.48111705    -6.9642645      0             -6.2445936      3.5328805    
  27300000   0.45898289    -6.9343374      0             -6.2477755      3.5413128    
  29400000   0.45849809    -6.8792465      0             -6.1934098      3.8687646    
  29400000   0.45849809    -6.8792465      0             -6.1934098      3.8687646    
  27600000   0.45547496    -6.8994978      0             -6.2181831      3.6703566    
  29700000   0.48171341    -6.9554123      0             -6.2348494      3.4320096    
  29700000   0.48171341    -6.9554123      0             -6.2348494      3.4320096    
  30000000   0.46452507    -6.9368852      0             -6.2420331      3.6247444    
Loop time of 2724.06 on 4 procs for 30000000 steps with 360 atoms

Performance: 2854567.730 tau/day, 11012.993 timesteps/s, 3.965 Matom-step/s
99.6% CPU use with 4 MPI tasks x 1 OpenMP threads

MPI task timing breakdown:
Section |  min time  |  avg time  |  max time  |%varavg| %total
---------------------------------------------------------------
Pair    | 1525.6     | 1537.7     | 1548.3     |  20.6 | 56.45
Neigh   | 130.05     | 131.1      | 131.94     |   6.1 |  4.81
Comm    | 917.19     | 928.11     | 937.82     |  24.2 | 34.07
Output  | 0.15304    | 0.15414    | 0.1574     |   0.5 |  0.01
Modify  | 89.436     | 93.249     | 97.757     |  31.3 |  3.42
Other   |            | 33.78      |            |       |  1.24

Nlocal:             90 ave          92 max          87 min
Histogram: 1 0 0 0 1 0 0 0 0 2
Nghost:        1240.25 ave        1262 max        1215 min
Histogram: 1 0 0 0 0 2 0 0 0 1
Neighs:         5196.5 ave        5430 max        5029 min
Histogram: 1 1 0 0 0 1 0 0 0 1

Total # of neighbors = 20786
Ave neighs/atom = 57.738889
Neighbor list builds = 769866
Dangerous builds = 960
Total wall time: 0:45:24
  27900000   0.48381168    -6.951864       0             -6.2281624      3.3611894    
  30000000   0.46452507    -6.9368852      0             -6.2420331      3.6247444    
Loop time of 2746.63 on 4 procs for 30000000 steps with 360 atoms

Performance: 2831103.880 tau/day, 10922.469 timesteps/s, 3.932 Matom-step/s
99.6% CPU use with 4 MPI tasks x 1 OpenMP threads

MPI task timing breakdown:
Section |  min time  |  avg time  |  max time  |%varavg| %total
---------------------------------------------------------------
Pair    | 1533       | 1547       | 1576.5     |  44.7 | 56.32
Neigh   | 129.99     | 131.51     | 134.11     |  13.6 |  4.79
Comm    | 911.7      | 941.06     | 953.81     |  56.2 | 34.26
Output  | 0.063595   | 0.063994   | 0.065179   |   0.3 |  0.00
Modify  | 90.584     | 93.53      | 97.887     |  29.6 |  3.41
Other   |            | 33.48      |            |       |  1.22

Nlocal:             90 ave          92 max          87 min
Histogram: 1 0 0 0 1 0 0 0 0 2
Nghost:        1240.25 ave        1262 max        1215 min
Histogram: 1 0 0 0 0 2 0 0 0 1
Neighs:         5196.5 ave        5430 max        5029 min
Histogram: 1 1 0 0 0 1 0 0 0 1

Total # of neighbors = 20786
Ave neighs/atom = 57.738889
Neighbor list builds = 769866
Dangerous builds = 960
Total wall time: 0:45:46
  28200000   0.48419505    -6.9162979      0             -6.1920228      3.5812589    
  28500000   0.50736256    -6.9130399      0             -6.15411        3.7415669    
  28800000   0.48601277    -6.953131       0             -6.2261369      3.4174187    
  29100000   0.48111705    -6.9642645      0             -6.2445936      3.5328805    
  29400000   0.45849809    -6.8792465      0             -6.1934098      3.8687646    
  29700000   0.48171341    -6.9554123      0             -6.2348494      3.4320096    
  30000000   0.46452507    -6.9368852      0             -6.2420331      3.6247444    
Loop time of 2905.77 on 4 procs for 30000000 steps with 360 atoms

Performance: 2676053.392 tau/day, 10324.280 timesteps/s, 3.717 Matom-step/s
99.7% CPU use with 4 MPI tasks x 1 OpenMP threads

MPI task timing breakdown:
Section |  min time  |  avg time  |  max time  |%varavg| %total
---------------------------------------------------------------
Pair    | 1529.9     | 1588.9     | 1731       | 206.8 | 54.68
Neigh   | 130.2      | 135.37     | 147.71     |  61.7 |  4.66
Comm    | 902.66     | 1050.6     | 1105.1     | 263.8 | 36.16
Output  | 0.17894    | 0.17934    | 0.18047    |   0.2 |  0.01
Modify  | 88.983     | 97.141     | 107.57     |  72.2 |  3.34
Other   |            | 33.6       |            |       |  1.16

Nlocal:             90 ave          92 max          87 min
Histogram: 1 0 0 0 1 0 0 0 0 2
Nghost:        1240.25 ave        1262 max        1215 min
Histogram: 1 0 0 0 0 2 0 0 0 1
Neighs:         5196.5 ave        5430 max        5029 min
Histogram: 1 1 0 0 0 1 0 0 0 1

Total # of neighbors = 20786
Ave neighs/atom = 57.738889
Neighbor list builds = 769866
Dangerous builds = 960
Total wall time: 0:48:25
