     10000   1.0340334     -6.0625254      0             -4.5157838      9.6109731    
     12000   1.0073606     -6.0217606      0             -4.5149171      9.8871032    
     12000   1.0073606     -6.0217606      0             -4.5149171      9.8871032    
     12500   1.0090783     -5.9478796      0             -4.4384667      10.47427     
Loop time of 1.03591 on 4 procs for 12500 steps with 360 atoms

Performance: 2085130.580 tau/day, 12066.728 timesteps/s, 4.344 Matom-step/s
99.3% CPU use with 4 MPI tasks x 1 OpenMP threads

MPI task timing breakdown:
Section |  min time  |  avg time  |  max time  |%varavg| %total
---------------------------------------------------------------
Pair    | 0.62134    | 0.62984    | 0.63347    |   0.6 | 60.80
Neigh   | 0.05515    | 0.055875   | 0.056469   |   0.2 |  5.39
Comm    | 0.27865    | 0.28594    | 0.29534    |   1.1 | 27.60
Output  | 0.016773   | 0.019798   | 0.026631   |   2.8 |  1.91
Modify  | 0.028246   | 0.02886    | 0.029497   |   0.3 |  2.79
Other   |            | 0.01559    |            |       |  1.51

Nlocal:             90 ave          94 max          87 min
Histogram: 2 0 0 0 0 0 0 1 0 1
Nghost:           1243 ave        1266 max        1212 min
Histogram: 1 0 0 0 0 1 0 1 0 1
Neighs:           5192 ave        5430 max        4973 min
Histogram: 1 0 0 0 1 1 0 0 0 1

Total # of neighbors = 20768
Ave neighs/atom = 57.688889
Neighbor list builds = 336
Dangerous builds = 0
Total wall time: 0:00:01
     12500   1.0090783     -5.9478796      0             -4.4384667      10.47427     
Loop time of 1.03002 on 4 procs for 12500 steps with 360 atoms

Performance: 2097042.822 tau/day, 12135.664 timesteps/s, 4.369 Matom-step/s
99.2% CPU use with 4 MPI tasks x 1 OpenMP threads

MPI task timing breakdown:
Section |  min time  |  avg time  |  max time  |%varavg| %total
---------------------------------------------------------------
Pair    | 0.61439    | 0.62749    | 0.63601    |   1.0 | 60.92
Neigh   | 0.054972   | 0.055833   | 0.056296   |   0.2 |  5.42
Comm    | 0.27939    | 0.28625    | 0.29924    |   1.5 | 27.79
Output  | 0.012513   | 0.015479   | 0.022175   |   3.1 |  1.50
Modify  | 0.027735   | 0.029431   | 0.031079   |   1.0 |  2.86
Other   |            | 0.01554    |            |       |  1.51

Nlocal:             90 ave          94 max          87 min
Histogram: 2 0 0 0 0 0 0 1 0 1
Nghost:           1243 ave        1266 max        1212 min
Histogram: 1 0 0 0 0 1 0 1 0 1
Neighs:           5192 ave        5430 max        4973 min
Histogram: 1 0 0 0 1 1 0 0 0 1

Total # of neighbors = 20768
Ave neighs/atom = 57.688889
Neighbor list builds = 336
Dangerous builds = 0
Total wall time: 0:00:01
     12000   1.0073606     -6.0217606      0             -4.5149171      9.8871032    
     12500   1.0090783     -5.9478796      0             -4.4384667      10.47427     
Loop time of 1.14087 on 4 procs for 12500 steps with 360 atoms

Performance: 1893283.710 tau/day, 10956.503 timesteps/s, 3.944 Matom-step/s
99.4% CPU use with 4 MPI tasks x 1 OpenMP threads

MPI task timing breakdown:
Section |  min time  |  avg time  |  max time  |%varavg| %total
---------------------------------------------------------------
Pair    | 0.6173     | 0.62763    | 0.635      |   0.8 | 55.01
Neigh   | 0.055336   | 0.055914   | 0.056455   |   0.2 |  4.90
Comm    | 0.36833    | 0.37804    | 0.38748    |   1.1 | 33.14
Output  | 0.019722   | 0.023211   | 0.03011    |   2.7 |  2.03
Modify  | 0.035641   | 0.037419   | 0.039337   |   0.7 |  3.28
Other   |            | 0.01866    |            |       |  1.64

Nlocal:             90 ave          94 max          87 min
Histogram: 2 0 0 0 0 0 0 1 0 1
Nghost:           1243 ave        1266 max        1212 min
Histogram: 1 0 0 0 0 1 0 1 0 1
Neighs:           5192 ave        5430 max        4973 min
Histogram: 1 0 0 0 1 1 0 0 0 1

Total # of neighbors = 20768
Ave neighs/atom = 57.688889
Neighbor list builds = 336
Dangerous builds = 0
Total wall time: 0:00:01
LAMMPS (15 Sep 2022)
LAMMPS (15 Sep 2022)
OMP_NUM_THREADS environment is not set. Defaulting to 1 thread. (src/comm.cpp:98)
  using 1 OpenMP thread(s) per MPI task
OMP_NUM_THREADS environment is not set. Defaulting to 1 thread. (src/comm.cpp:98)
  using 1 OpenMP thread(s) per MPI task
Reading restart file ...
Reading restart file ...
  restart file = 15 Sep 2022, LAMMPS = 15 Sep 2022
  restoring atom style atomic from restart
  restart file = 15 Sep 2022, LAMMPS = 15 Sep 2022
  restoring atom style atomic from restart
  orthogonal box = (0 0 0) to (6.6943295 6.6943295 6.6943295)
  orthogonal box = (0 0 0) to (6.6943295 6.6943295 6.6943295)
  1 by 2 by 2 MPI processor grid
  restoring pair style lj/cut from restart
  1 by 2 by 2 MPI processor grid
  restoring pair style lj/cut from restart
  360 atoms
  read_restart CPU = 0.072 seconds
  360 atoms
  read_restart CPU = 0.071 seconds
Setting up equilibration run
Setting up equilibration run
Resetting global fix info from restart file:
  fix style: nvt, fix ID: 1
Generated 0 of 1 mixed pair_coeff terms from geometric mixing rule
All restart file global fix info was re-assigned
Neighbor list info ...
  update: every = 1 steps, delay = 25 steps, check = yes
  max neighbors/atom: 2000, page size: 100000
  master list distance cutoff = 3
  ghost atom cutoff = 3
  binsize = 1.5, bins = 5 5 5
  1 neighbor lists, perpetual/occasional/extra = 1 0 0
  (1) pair lj/cut, perpetual
      attributes: half, newton on
      pair build: half/bin/atomonly/newton
      stencil: half/bin/3d
      bin: standard
Resetting global fix info from restart file:
  fix style: nvt, fix ID: 1
Generated 0 of 1 mixed pair_coeff terms from geometric mixing rule
All restart file global fix info was re-assigned
Neighbor list info ...
  update: every = 1 steps, delay = 25 steps, check = yes
  max neighbors/atom: 2000, page size: 100000
  master list distance cutoff = 3
  ghost atom cutoff = 3
  binsize = 1.5, bins = 5 5 5
  1 neighbor lists, perpetual/occasional/extra = 1 0 0
  (1) pair lj/cut, perpetual
      attributes: half, newton on
      pair build: half/bin/atomonly/newton
      stencil: half/bin/3d
      bin: standard
Setting up Verlet run ...
  Unit style    : lj
  Current step  : 0
  Time step     : 0.002
Setting up Verlet run ...
  Unit style    : lj
  Current step  : 0
  Time step     : 0.002
Per MPI rank memory allocation (min/avg/max) = 3.137 | 3.138 | 3.138 Mbytes
   Step          Temp          E_pair         E_mol          TotEng         Press     
Per MPI rank memory allocation (min/avg/max) = 3.137 | 3.138 | 3.138 Mbytes
   Step          Temp          E_pair         E_mol          TotEng         Press     
         0   0.90369682    -6.2380635      0             -4.8862837      8.4530268    
         0   0.90369682    -6.2380635      0             -4.8862837      8.4530268    
LAMMPS (15 Sep 2022)
OMP_NUM_THREADS environment is not set. Defaulting to 1 thread. (src/comm.cpp:98)
  using 1 OpenMP thread(s) per MPI task
Reading restart file ...
  restart file = 15 Sep 2022, LAMMPS = 15 Sep 2022
  restoring atom style atomic from restart
  orthogonal box = (0 0 0) to (6.6943295 6.6943295 6.6943295)
  1 by 2 by 2 MPI processor grid
  restoring pair style lj/cut from restart
  360 atoms
  read_restart CPU = 0.002 seconds
Setting up equilibration run
Resetting global fix info from restart file:
  fix style: nvt, fix ID: 1
Generated 0 of 1 mixed pair_coeff terms from geometric mixing rule
All restart file global fix info was re-assigned
Neighbor list info ...
  update: every = 1 steps, delay = 25 steps, check = yes
  max neighbors/atom: 2000, page size: 100000
  master list distance cutoff = 3
  ghost atom cutoff = 3
  binsize = 1.5, bins = 5 5 5
  1 neighbor lists, perpetual/occasional/extra = 1 0 0
  (1) pair lj/cut, perpetual
      attributes: half, newton on
      pair build: half/bin/atomonly/newton
      stencil: half/bin/3d
      bin: standard
Setting up Verlet run ...
  Unit style    : lj
  Current step  : 0
  Time step     : 0.002
Per MPI rank memory allocation (min/avg/max) = 3.137 | 3.138 | 3.138 Mbytes
   Step          Temp          E_pair         E_mol          TotEng         Press     
         0   0.90369682    -6.2380635      0             -4.8862837      8.4530268    
      5000   0.90413122    -6.2582673      0             -4.9058377      8.2064731    
      5000   0.90413122    -6.2582673      0             -4.9058377      8.2064731    
      5000   0.90413122    -6.2582673      0             -4.9058377      8.2064731    
     10000   0.93233959    -6.2776196      0             -4.882995       8.1416341    
     10000   0.93233959    -6.2776196      0             -4.882995       8.1416341    
LAMMPS (15 Sep 2022)
LAMMPS (15 Sep 2022)
OMP_NUM_THREADS environment is not set. Defaulting to 1 thread. (src/comm.cpp:98)
  using 1 OpenMP thread(s) per MPI task
     10000   0.93233959    -6.2776196      0             -4.882995       8.1416341    
LAMMPS (15 Sep 2022)
LAMMPS (15 Sep 2022)
Reading restart file ...
OMP_NUM_THREADS environment is not set. Defaulting to 1 thread. (src/comm.cpp:98)
  using 1 OpenMP thread(s) per MPI task
Reading restart file ...
  restart file = 15 Sep 2022, LAMMPS = 15 Sep 2022
  restoring atom style atomic from restart
  orthogonal box = (0 0 0) to (6.6943295 6.6943295 6.6943295)
LAMMPS (15 Sep 2022)
  restart file = 15 Sep 2022, LAMMPS = 15 Sep 2022
  restoring atom style atomic from restart
  orthogonal box = (0 0 0) to (6.6943295 6.6943295 6.6943295)
OMP_NUM_THREADS environment is not set. Defaulting to 1 thread. (src/comm.cpp:98)
  using 1 OpenMP thread(s) per MPI task
LAMMPS (15 Sep 2022)
LAMMPS (15 Sep 2022)
OMP_NUM_THREADS environment is not set. Defaulting to 1 thread. (src/comm.cpp:98)
  using 1 OpenMP thread(s) per MPI task
Reading restart file ...
  restart file = 15 Sep 2022, LAMMPS = 15 Sep 2022
  restoring atom style atomic from restart
  orthogonal box = (0 0 0) to (6.6943295 6.6943295 6.6943295)
OMP_NUM_THREADS environment is not set. Defaulting to 1 thread. (src/comm.cpp:98)
  using 1 OpenMP thread(s) per MPI task
Reading restart file ...
  restart file = 15 Sep 2022, LAMMPS = 15 Sep 2022
  restoring atom style atomic from restart
  orthogonal box = (0 0 0) to (6.6943295 6.6943295 6.6943295)
OMP_NUM_THREADS environment is not set. Defaulting to 1 thread. (src/comm.cpp:98)
  using 1 OpenMP thread(s) per MPI task
Reading restart file ...
  restart file = 15 Sep 2022, LAMMPS = 15 Sep 2022
  restoring atom style atomic from restart
  orthogonal box = (0 0 0) to (6.6943295 6.6943295 6.6943295)
OMP_NUM_THREADS environment is not set. Defaulting to 1 thread. (src/comm.cpp:98)
  using 1 OpenMP thread(s) per MPI task
Reading restart file ...
  restart file = 15 Sep 2022, LAMMPS = 15 Sep 2022
  restoring atom style atomic from restart
  orthogonal box = (0 0 0) to (6.6943295 6.6943295 6.6943295)
  1 by 2 by 2 MPI processor grid
  1 by 2 by 2 MPI processor grid
  restoring pair style lj/cut from restart
  360 atoms
  read_restart CPU = 0.037 seconds
  restoring pair style lj/cut from restart
  360 atoms
  read_restart CPU = 0.037 seconds
Setting up equilibration run
  1 by 2 by 2 MPI processor grid
  restoring pair style lj/cut from restart
Setting up equilibration run
  1 by 2 by 2 MPI processor grid
  restoring pair style lj/cut from restart
  1 by 2 by 2 MPI processor grid
  restoring pair style lj/cut from restart
  360 atoms
  read_restart CPU = 0.019 seconds
  360 atoms
  read_restart CPU = 0.038 seconds
Setting up equilibration run
  360 atoms
  read_restart CPU = 0.037 seconds
Setting up equilibration run
  1 by 2 by 2 MPI processor grid
  restoring pair style lj/cut from restart
  360 atoms
  read_restart CPU = 0.017 seconds
Setting up equilibration run
Setting up equilibration run
Reading restart file ...
  restart file = 15 Sep 2022, LAMMPS = 15 Sep 2022
  restoring atom style atomic from restart
  orthogonal box = (0 0 0) to (6.6943295 6.6943295 6.6943295)
  1 by 2 by 2 MPI processor grid
  restoring pair style lj/cut from restart
  360 atoms
  read_restart CPU = 0.002 seconds
Setting up equilibration run
Resetting global fix info from restart file:
  fix style: nvt, fix ID: 1
Generated 0 of 1 mixed pair_coeff terms from geometric mixing rule
All restart file global fix info was re-assigned
Resetting global fix info from restart file:
  fix style: nvt, fix ID: 1
Generated 0 of 1 mixed pair_coeff terms from geometric mixing rule
All restart file global fix info was re-assigned
Neighbor list info ...
  update: every = 1 steps, delay = 20 steps, check = yes
  max neighbors/atom: 2000, page size: 100000
  master list distance cutoff = 3
  ghost atom cutoff = 3
  binsize = 1.5, bins = 5 5 5
  1 neighbor lists, perpetual/occasional/extra = 1 0 0
  (1) pair lj/cut, perpetual
      attributes: half, newton on
      pair build: half/bin/atomonly/newton
      stencil: half/bin/3d
      bin: standard
Setting up Verlet run ...
  Unit style    : lj
  Current step  : 0
  Time step     : 0.002
Per MPI rank memory allocation (min/avg/max) = 3.138 | 3.138 | 3.138 Mbytes
   Step          Temp          E_pair         E_mol          TotEng         Press     
         0   1.5401862     -5.3385509      0             -3.0346891      14.460129    
Resetting global fix info from restart file:
  fix style: nvt, fix ID: 1
Generated 0 of 1 mixed pair_coeff terms from geometric mixing rule
All restart file global fix info was re-assigned
Neighbor list info ...
  update: every = 1 steps, delay = 20 steps, check = yes
  max neighbors/atom: 2000, page size: 100000
  master list distance cutoff = 3
  ghost atom cutoff = 3
  binsize = 1.5, bins = 5 5 5
  1 neighbor lists, perpetual/occasional/extra = 1 0 0
  (1) pair lj/cut, perpetual
      attributes: half, newton on
      pair build: half/bin/atomonly/newton
      stencil: half/bin/3d
      bin: standard
Setting up Verlet run ...
  Unit style    : lj
  Current step  : 0
  Time step     : 0.002
Per MPI rank memory allocation (min/avg/max) = 3.138 | 3.138 | 3.138 Mbytes
   Step          Temp          E_pair         E_mol          TotEng         Press     
         0   1.5401862     -5.3385509      0             -3.0346891      14.460129    
Resetting global fix info from restart file:
  fix style: nvt, fix ID: 1
Generated 0 of 1 mixed pair_coeff terms from geometric mixing rule
All restart file global fix info was re-assigned
Neighbor list info ...
  update: every = 1 steps, delay = 20 steps, check = yes
  max neighbors/atom: 2000, page size: 100000
  master list distance cutoff = 3
  ghost atom cutoff = 3
  binsize = 1.5, bins = 5 5 5
  1 neighbor lists, perpetual/occasional/extra = 1 0 0
  (1) pair lj/cut, perpetual
      attributes: half, newton on
      pair build: half/bin/atomonly/newton
      stencil: half/bin/3d
      bin: standard
Setting up Verlet run ...
  Unit style    : lj
  Current step  : 0
  Time step     : 0.002
Per MPI rank memory allocation (min/avg/max) = 3.138 | 3.138 | 3.138 Mbytes
   Step          Temp          E_pair         E_mol          TotEng         Press     
         0   1.5401862     -5.3385509      0             -3.0346891      14.460129    
Neighbor list info ...
  update: every = 1 steps, delay = 20 steps, check = yes
  max neighbors/atom: 2000, page size: 100000
  master list distance cutoff = 3
  ghost atom cutoff = 3
  binsize = 1.5, bins = 5 5 5
  1 neighbor lists, perpetual/occasional/extra = 1 0 0
  (1) pair lj/cut, perpetual
      attributes: half, newton on
      pair build: half/bin/atomonly/newton
      stencil: half/bin/3d
      bin: standard
Setting up Verlet run ...
  Unit style    : lj
  Current step  : 0
  Time step     : 0.002
Per MPI rank memory allocation (min/avg/max) = 3.138 | 3.138 | 3.138 Mbytes
   Step          Temp          E_pair         E_mol          TotEng         Press     
         0   1.5401862     -5.3385509      0             -3.0346891      14.460129    
Resetting global fix info from restart file:
  fix style: nvt, fix ID: 1
Resetting global fix info from restart file:
  fix style: nvt, fix ID: 1
Generated 0 of 1 mixed pair_coeff terms from geometric mixing rule
All restart file global fix info was re-assigned
Neighbor list info ...
  update: every = 1 steps, delay = 20 steps, check = yes
  max neighbors/atom: 2000, page size: 100000
  master list distance cutoff = 3
  ghost atom cutoff = 3
  binsize = 1.5, bins = 5 5 5
  1 neighbor lists, perpetual/occasional/extra = 1 0 0
  (1) pair lj/cut, perpetual
      attributes: half, newton on
      pair build: half/bin/atomonly/newton
      stencil: half/bin/3d
      bin: standard
Generated 0 of 1 mixed pair_coeff terms from geometric mixing rule
All restart file global fix info was re-assigned
Neighbor list info ...
  update: every = 1 steps, delay = 20 steps, check = yes
  max neighbors/atom: 2000, page size: 100000
  master list distance cutoff = 3
  ghost atom cutoff = 3
  binsize = 1.5, bins = 5 5 5
  1 neighbor lists, perpetual/occasional/extra = 1 0 0
  (1) pair lj/cut, perpetual
      attributes: half, newton on
      pair build: half/bin/atomonly/newton
      stencil: half/bin/3d
      bin: standard
Setting up Verlet run ...
  Unit style    : lj
  Current step  : 0
  Time step     : 0.002
Per MPI rank memory allocation (min/avg/max) = 3.138 | 3.138 | 3.138 Mbytes
   Step          Temp          E_pair         E_mol          TotEng         Press     
         0   1.5401862     -5.3385509      0             -3.0346891      14.460129    
Resetting global fix info from restart file:
  fix style: nvt, fix ID: 1
Generated 0 of 1 mixed pair_coeff terms from geometric mixing rule
All restart file global fix info was re-assigned
Neighbor list info ...
  update: every = 1 steps, delay = 20 steps, check = yes
  max neighbors/atom: 2000, page size: 100000
  master list distance cutoff = 3
  ghost atom cutoff = 3
  binsize = 1.5, bins = 5 5 5
  1 neighbor lists, perpetual/occasional/extra = 1 0 0
  (1) pair lj/cut, perpetual
      attributes: half, newton on
      pair build: half/bin/atomonly/newton
      stencil: half/bin/3d
      bin: standard
Setting up Verlet run ...
  Unit style    : lj
  Current step  : 0
  Time step     : 0.002
Setting up Verlet run ...
  Unit style    : lj
  Current step  : 0
  Time step     : 0.002
Per MPI rank memory allocation (min/avg/max) = 3.138 | 3.138 | 3.138 Mbytes
   Step          Temp          E_pair         E_mol          TotEng         Press     
         0   1.5401862     -5.3385509      0             -3.0346891      14.460129    
Per MPI rank memory allocation (min/avg/max) = 3.138 | 3.138 | 3.138 Mbytes
   Step          Temp          E_pair         E_mol          TotEng         Press     
         0   1.5401862     -5.3385509      0             -3.0346891      14.460129    
     15000   0.96603613    -6.2042844      0             -4.7592553      8.8152384    
     15000   0.96603613    -6.2042844      0             -4.7592553      8.8152384    
      1000   1.4651922     -5.3235843      0             -3.1319009      14.56903     
      1000   1.4651922     -5.3235843      0             -3.1319009      14.56903     
      1000   1.4651922     -5.3235843      0             -3.1319009      14.56903     
      1000   1.4651922     -5.3235843      0             -3.1319009      14.56903     
      1000   1.4651922     -5.3235843      0             -3.1319009      14.56903     
      1000   1.4651922     -5.3235843      0             -3.1319009      14.56903     
      1000   1.4651922     -5.3235843      0             -3.1319009      14.56903     
      2000   1.6039063     -5.3174248      0             -2.9182484      14.790532    
      2000   1.6039063     -5.3174248      0             -2.9182484      14.790532    
      2000   1.6039063     -5.3174248      0             -2.9182484      14.790532    
      2000   1.6039063     -5.3174248      0             -2.9182484      14.790532    
      2000   1.6039063     -5.3174248      0             -2.9182484      14.790532    
      2000   1.6039063     -5.3174248      0             -2.9182484      14.790532    
     15000   0.96603613    -6.2042844      0             -4.7592553      8.8152384    
      2000   1.6039063     -5.3174248      0             -2.9182484      14.790532    
      2500   1.5224545     -5.0933658      0             -2.8160277      16.068812    
      2500   1.5224545     -5.0933658      0             -2.8160277      16.068812    
Loop time of 0.294361 on 4 procs for 2500 steps with 360 atoms

Performance: 1467587.111 tau/day, 8492.981 timesteps/s, 3.057 Matom-step/s
96.6% CPU use with 4 MPI tasks x 1 OpenMP threads

MPI task timing breakdown:
Section |  min time  |  avg time  |  max time  |%varavg| %total
---------------------------------------------------------------
Pair    | 0.12966    | 0.13273    | 0.13787    |   0.9 | 45.09
Neigh   | 0.014338   | 0.01461    | 0.01512    |   0.3 |  4.96
Comm    | 0.083571   | 0.094719   | 0.10146    |   2.3 | 32.18
Output  | 0.023149   | 0.032267   | 0.055855   |   7.6 | 10.96
Modify  | 0.0077737  | 0.0079395  | 0.0081317  |   0.2 |  2.70
Other   |            | 0.0121     |            |       |  4.11

Nlocal:             90 ave          93 max          84 min
Histogram: 1 0 0 0 0 0 1 0 0 2
Nghost:        1233.25 ave        1249 max        1221 min
Histogram: 1 0 1 0 1 0 0 0 0 1
Neighs:           5191 ave        5417 max        4921 min
Histogram: 1 0 0 0 1 0 0 1 0 1

Total # of neighbors = 20764
Ave neighs/atom = 57.677778
Neighbor list builds = 85
Dangerous builds = 0
      2500   1.5224545     -5.0933658      0             -2.8160277      16.068812    
      2500   1.5224545     -5.0933658      0             -2.8160277      16.068812    
Total wall time: 0:00:00
      2500   1.5224545     -5.0933658      0             -2.8160277      16.068812    
      2500   1.5224545     -5.0933658      0             -2.8160277      16.068812    
Loop time of 0.296687 on 4 procs for 2500 steps with 360 atoms

Performance: 1456078.276 tau/day, 8426.379 timesteps/s, 3.033 Matom-step/s
96.4% CPU use with 4 MPI tasks x 1 OpenMP threads

MPI task timing breakdown:
Section |  min time  |  avg time  |  max time  |%varavg| %total
---------------------------------------------------------------
Pair    | 0.12997    | 0.13284    | 0.13746    |   0.8 | 44.77
Neigh   | 0.014357   | 0.014594   | 0.015034   |   0.2 |  4.92
Comm    | 0.083649   | 0.096276   | 0.10328    |   2.5 | 32.45
Output  | 0.023317   | 0.032939   | 0.058008   |   8.0 | 11.10
Modify  | 0.0078162  | 0.0079652  | 0.0081389  |   0.2 |  2.68
Other   |            | 0.01207    |            |       |  4.07

Nlocal:             90 ave          93 max          84 min
Histogram: 1 0 0 0 0 0 1 0 0 2
Nghost:        1233.25 ave        1249 max        1221 min
Histogram: 1 0 1 0 1 0 0 0 0 1
Neighs:           5191 ave        5417 max        4921 min
Histogram: 1 0 0 0 1 0 0 1 0 1

Total # of neighbors = 20764
Ave neighs/atom = 57.677778
Neighbor list builds = 85
Dangerous builds = 0
Loop time of 0.296419 on 4 procs for 2500 steps with 360 atoms

Performance: 1457397.375 tau/day, 8434.013 timesteps/s, 3.036 Matom-step/s
96.1% CPU use with 4 MPI tasks x 1 OpenMP threads

MPI task timing breakdown:
Section |  min time  |  avg time  |  max time  |%varavg| %total
---------------------------------------------------------------
Pair    | 0.13036    | 0.13282    | 0.13789    |   0.8 | 44.81
Neigh   | 0.014353   | 0.014597   | 0.015058   |   0.2 |  4.92
Comm    | 0.083106   | 0.097259   | 0.10436    |   2.8 | 32.81
Output  | 0.021443   | 0.031422   | 0.057618   |   8.5 | 10.60
Modify  | 0.0077599  | 0.0079643  | 0.008232   |   0.2 |  2.69
Other   |            | 0.01235    |            |       |  4.17

Nlocal:             90 ave          93 max          84 min
Histogram: 1 0 0 0 0 0 1 0 0 2
Nghost:        1233.25 ave        1249 max        1221 min
Histogram: 1 0 1 0 1 0 0 0 0 1
Neighs:           5191 ave        5417 max        4921 min
Histogram: 1 0 0 0 1 0 0 1 0 1

Total # of neighbors = 20764
Ave neighs/atom = 57.677778
Neighbor list builds = 85
Dangerous builds = 0
Total wall time: 0:00:00
Loop time of 0.296488 on 4 procs for 2500 steps with 360 atoms

Performance: 1457055.228 tau/day, 8432.033 timesteps/s, 3.036 Matom-step/s
96.6% CPU use with 4 MPI tasks x 1 OpenMP threads

MPI task timing breakdown:
Section |  min time  |  avg time  |  max time  |%varavg| %total
---------------------------------------------------------------
Pair    | 0.13012    | 0.13257    | 0.13735    |   0.8 | 44.71
Neigh   | 0.014373   | 0.014644   | 0.015098   |   0.2 |  4.94
Comm    | 0.082664   | 0.097581   | 0.10526    |   2.9 | 32.91
Output  | 0.02337    | 0.033038   | 0.058284   |   8.0 | 11.14
Modify  | 0.0078226  | 0.007952   | 0.0081263  |   0.1 |  2.68
Other   |            | 0.0107     |            |       |  3.61

Nlocal:             90 ave          93 max          84 min
Histogram: 1 0 0 0 0 0 1 0 0 2
Nghost:        1233.25 ave        1249 max        1221 min
Histogram: 1 0 1 0 1 0 0 0 0 1
Neighs:           5191 ave        5417 max        4921 min
Histogram: 1 0 0 0 1 0 0 1 0 1

Total # of neighbors = 20764
Ave neighs/atom = 57.677778
Neighbor list builds = 85
Dangerous builds = 0
Total wall time: 0:00:00
Loop time of 0.296963 on 4 procs for 2500 steps with 360 atoms

Performance: 1454727.919 tau/day, 8418.564 timesteps/s, 3.031 Matom-step/s
96.5% CPU use with 4 MPI tasks x 1 OpenMP threads

MPI task timing breakdown:
Section |  min time  |  avg time  |  max time  |%varavg| %total
---------------------------------------------------------------
Pair    | 0.13003    | 0.13269    | 0.13782    |   0.9 | 44.68
Neigh   | 0.01436    | 0.014588   | 0.015043   |   0.2 |  4.91
Comm    | 0.083088   | 0.096678   | 0.10413    |   2.7 | 32.56
Output  | 0.023288   | 0.033034   | 0.058461   |   8.1 | 11.12
Modify  | 0.0077345  | 0.0079179  | 0.0081347  |   0.2 |  2.67
Other   |            | 0.01205    |            |       |  4.06

Nlocal:             90 ave          93 max          84 min
Histogram: 1 0 0 0 0 0 1 0 0 2
Nghost:        1233.25 ave        1249 max        1221 min
Histogram: 1 0 1 0 1 0 0 0 0 1
Neighs:           5191 ave        5417 max        4921 min
Histogram: 1 0 0 0 1 0 0 1 0 1

Total # of neighbors = 20764
Ave neighs/atom = 57.677778
Neighbor list builds = 85
Dangerous builds = 0
Total wall time: 0:00:00
Total wall time: 0:00:00
Loop time of 0.272078 on 4 procs for 2500 steps with 360 atoms

Performance: 1587779.476 tau/day, 9188.539 timesteps/s, 3.308 Matom-step/s
95.4% CPU use with 4 MPI tasks x 1 OpenMP threads

MPI task timing breakdown:
Section |  min time  |  avg time  |  max time  |%varavg| %total
---------------------------------------------------------------
Pair    | 0.1296     | 0.13316    | 0.13854    |   0.9 | 48.94
Neigh   | 0.014365   | 0.014644   | 0.015135   |   0.2 |  5.38
Comm    | 0.066344   | 0.078022   | 0.084569   |   2.6 | 28.68
Output  | 0.019519   | 0.028466   | 0.05294    |   8.4 | 10.46
Modify  | 0.0060229  | 0.0063329  | 0.0066161  |   0.3 |  2.33
Other   |            | 0.01145    |            |       |  4.21

Nlocal:             90 ave          93 max          84 min
Histogram: 1 0 0 0 0 0 1 0 0 2
Nghost:        1233.25 ave        1249 max        1221 min
Histogram: 1 0 1 0 1 0 0 0 0 1
Neighs:           5191 ave        5417 max        4921 min
Histogram: 1 0 0 0 1 0 0 1 0 1

Total # of neighbors = 20764
Ave neighs/atom = 57.677778
Neighbor list builds = 85
Dangerous builds = 0
Total wall time: 0:00:00
      2500   1.5224545     -5.0933658      0             -2.8160277      16.068812    
Loop time of 0.327588 on 4 procs for 2500 steps with 360 atoms

Performance: 1318728.891 tau/day, 7631.533 timesteps/s, 2.747 Matom-step/s
96.6% CPU use with 4 MPI tasks x 1 OpenMP threads

MPI task timing breakdown:
Section |  min time  |  avg time  |  max time  |%varavg| %total
---------------------------------------------------------------
Pair    | 0.13037    | 0.13348    | 0.13816    |   0.8 | 40.75
Neigh   | 0.014383   | 0.014626   | 0.015109   |   0.2 |  4.46
Comm    | 0.10999    | 0.1263     | 0.13759    |   3.1 | 38.55
Output  | 0.021627   | 0.030617   | 0.054588   |   7.9 |  9.35
Modify  | 0.0063164  | 0.010419   | 0.014335   |   3.5 |  3.18
Other   |            | 0.01215    |            |       |  3.71

Nlocal:             90 ave          93 max          84 min
Histogram: 1 0 0 0 0 0 1 0 0 2
Nghost:        1233.25 ave        1249 max        1221 min
Histogram: 1 0 1 0 1 0 0 0 0 1
Neighs:           5191 ave        5417 max        4921 min
Histogram: 1 0 0 0 1 0 0 1 0 1

Total # of neighbors = 20764
Ave neighs/atom = 57.677778
Neighbor list builds = 85
Dangerous builds = 0
Total wall time: 0:00:00
     20000   0.89216305    -6.2330259      0             -4.8984987      8.4949036    
     20000   0.89216305    -6.2330259      0             -4.8984987      8.4949036    
LAMMPS (15 Sep 2022)
OMP_NUM_THREADS environment is not set. Defaulting to 1 thread. (src/comm.cpp:98)
  using 1 OpenMP thread(s) per MPI task
Reading restart file ...
  restart file = 15 Sep 2022, LAMMPS = 15 Sep 2022
  restoring atom style atomic from restart
  orthogonal box = (0 0 0) to (6.6943295 6.6943295 6.6943295)
  1 by 2 by 2 MPI processor grid
  restoring pair style lj/cut from restart
  360 atoms
  read_restart CPU = 0.003 seconds
Setting up equilibration run
LAMMPS (15 Sep 2022)
OMP_NUM_THREADS environment is not set. Defaulting to 1 thread. (src/comm.cpp:98)
  using 1 OpenMP thread(s) per MPI task
     20000   0.89216305    -6.2330259      0             -4.8984987      8.4949036    
LAMMPS (15 Sep 2022)
LAMMPS (15 Sep 2022)
OMP_NUM_THREADS environment is not set. Defaulting to 1 thread. (src/comm.cpp:98)
  using 1 OpenMP thread(s) per MPI task
LAMMPS (15 Sep 2022)
LAMMPS (15 Sep 2022)
OMP_NUM_THREADS environment is not set. Defaulting to 1 thread. (src/comm.cpp:98)
  using 1 OpenMP thread(s) per MPI task
Reading restart file ...
LAMMPS (15 Sep 2022)
OMP_NUM_THREADS environment is not set. Defaulting to 1 thread. (src/comm.cpp:98)
  using 1 OpenMP thread(s) per MPI task
OMP_NUM_THREADS environment is not set. Defaulting to 1 thread. (src/comm.cpp:98)
  using 1 OpenMP thread(s) per MPI task
Reading restart file ...
  restart file = 15 Sep 2022, LAMMPS = 15 Sep 2022
  restoring atom style atomic from restart
  orthogonal box = (0 0 0) to (6.6943295 6.6943295 6.6943295)
  restart file = 15 Sep 2022, LAMMPS = 15 Sep 2022
  restoring atom style atomic from restart
  orthogonal box = (0 0 0) to (6.6943295 6.6943295 6.6943295)
Reading restart file ...
Reading restart file ...
  restart file = 15 Sep 2022, LAMMPS = 15 Sep 2022
  restoring atom style atomic from restart
  orthogonal box = (0 0 0) to (6.6943295 6.6943295 6.6943295)
Resetting global fix info from restart file:
  fix style: nvt, fix ID: 1
Reading restart file ...
  restart file = 15 Sep 2022, LAMMPS = 15 Sep 2022
  restoring atom style atomic from restart
  orthogonal box = (0 0 0) to (6.6943295 6.6943295 6.6943295)
  restart file = 15 Sep 2022, LAMMPS = 15 Sep 2022
  restoring atom style atomic from restart
  orthogonal box = (0 0 0) to (6.6943295 6.6943295 6.6943295)
Generated 0 of 1 mixed pair_coeff terms from geometric mixing rule
All restart file global fix info was re-assigned
Neighbor list info ...
  update: every = 1 steps, delay = 20 steps, check = yes
  max neighbors/atom: 2000, page size: 100000
  master list distance cutoff = 3
  ghost atom cutoff = 3
  binsize = 1.5, bins = 5 5 5
  1 neighbor lists, perpetual/occasional/extra = 1 0 0
  (1) pair lj/cut, perpetual
      attributes: half, newton on
      pair build: half/bin/atomonly/newton
      stencil: half/bin/3d
      bin: standard
Setting up Verlet run ...
  Unit style    : lj
  Current step  : 0
  Time step     : 0.002
OMP_NUM_THREADS environment is not set. Defaulting to 1 thread. (src/comm.cpp:98)
  using 1 OpenMP thread(s) per MPI task
Reading restart file ...
  restart file = 15 Sep 2022, LAMMPS = 15 Sep 2022
  restoring atom style atomic from restart
  orthogonal box = (0 0 0) to (6.6943295 6.6943295 6.6943295)
Per MPI rank memory allocation (min/avg/max) = 3.138 | 3.138 | 3.139 Mbytes
   Step          Temp          E_pair         E_mol          TotEng         Press     
         0   0.90216103    -5.958117       0             -4.6086344      10.094231    
  1 by 2 by 2 MPI processor grid
  restoring pair style lj/cut from restart
  1 by 2 by 2 MPI processor grid
  restoring pair style lj/cut from restart
  360 atoms
  read_restart CPU = 0.012 seconds
  360 atoms
  read_restart CPU = 0.012 seconds
  1 by 2 by 2 MPI processor grid
  restoring pair style lj/cut from restart
Setting up equilibration run
Setting up equilibration run
  1 by 2 by 2 MPI processor grid
  restoring pair style lj/cut from restart
  360 atoms
  read_restart CPU = 0.012 seconds
  1 by 2 by 2 MPI processor grid
  restoring pair style lj/cut from restart
Setting up equilibration run
Resetting global fix info from restart file:
  fix style: nvt, fix ID: 1
Generated 0 of 1 mixed pair_coeff terms from geometric mixing rule
All restart file global fix info was re-assigned
  360 atoms
  read_restart CPU = 0.012 seconds
  1 by 2 by 2 MPI processor grid
  restoring pair style lj/cut from restart
Setting up equilibration run
Resetting global fix info from restart file:
  fix style: nvt, fix ID: 1
Generated 0 of 1 mixed pair_coeff terms from geometric mixing rule
All restart file global fix info was re-assigned
Neighbor list info ...
  update: every = 1 steps, delay = 20 steps, check = yes
  max neighbors/atom: 2000, page size: 100000
  master list distance cutoff = 3
  ghost atom cutoff = 3
  binsize = 1.5, bins = 5 5 5
  1 neighbor lists, perpetual/occasional/extra = 1 0 0
  (1) pair lj/cut, perpetual
      attributes: half, newton on
      pair build: half/bin/atomonly/newton
      stencil: half/bin/3d
      bin: standard
Setting up Verlet run ...
  Unit style    : lj
  Current step  : 0
  Time step     : 0.002
  360 atoms
  read_restart CPU = 0.012 seconds
Setting up equilibration run
  360 atoms
  read_restart CPU = 0.012 seconds
Setting up equilibration run
Resetting global fix info from restart file:
  fix style: nvt, fix ID: 1
Generated 0 of 1 mixed pair_coeff terms from geometric mixing rule
All restart file global fix info was re-assigned
Neighbor list info ...
  update: every = 1 steps, delay = 20 steps, check = yes
  max neighbors/atom: 2000, page size: 100000
  master list distance cutoff = 3
  ghost atom cutoff = 3
  binsize = 1.5, bins = 5 5 5
  1 neighbor lists, perpetual/occasional/extra = 1 0 0
  (1) pair lj/cut, perpetual
      attributes: half, newton on
      pair build: half/bin/atomonly/newton
      stencil: half/bin/3d
      bin: standard
Setting up Verlet run ...
  Unit style    : lj
  Current step  : 0
  Time step     : 0.002
Resetting global fix info from restart file:
  fix style: nvt, fix ID: 1
Generated 0 of 1 mixed pair_coeff terms from geometric mixing rule
All restart file global fix info was re-assigned
Neighbor list info ...
  update: every = 1 steps, delay = 20 steps, check = yes
  max neighbors/atom: 2000, page size: 100000
  master list distance cutoff = 3
  ghost atom cutoff = 3
  binsize = 1.5, bins = 5 5 5
  1 neighbor lists, perpetual/occasional/extra = 1 0 0
  (1) pair lj/cut, perpetual
      attributes: half, newton on
      pair build: half/bin/atomonly/newton
      stencil: half/bin/3d
      bin: standard
Setting up Verlet run ...
  Unit style    : lj
  Current step  : 0
  Time step     : 0.002
Resetting global fix info from restart file:
  fix style: nvt, fix ID: 1
Generated 0 of 1 mixed pair_coeff terms from geometric mixing rule
All restart file global fix info was re-assigned
Neighbor list info ...
  update: every = 1 steps, delay = 20 steps, check = yes
  max neighbors/atom: 2000, page size: 100000
  master list distance cutoff = 3
  ghost atom cutoff = 3
  binsize = 1.5, bins = 5 5 5
  1 neighbor lists, perpetual/occasional/extra = 1 0 0
  (1) pair lj/cut, perpetual
      attributes: half, newton on
      pair build: half/bin/atomonly/newton
      stencil: half/bin/3d
      bin: standard
Setting up Verlet run ...
  Unit style    : lj
  Current step  : 0
  Time step     : 0.002
Per MPI rank memory allocation (min/avg/max) = 3.138 | 3.138 | 3.139 Mbytes
   Step          Temp          E_pair         E_mol          TotEng         Press     
Per MPI rank memory allocation (min/avg/max) = 3.138 | 3.138 | 3.139 Mbytes
   Step          Temp          E_pair         E_mol          TotEng         Press     
         0   0.90216103    -5.958117       0             -4.6086344      10.094231    
         0   0.90216103    -5.958117       0             -4.6086344      10.094231    
Per MPI rank memory allocation (min/avg/max) = 3.138 | 3.138 | 3.139 Mbytes
   Step          Temp          E_pair         E_mol          TotEng         Press     
         0   0.90216103    -5.958117       0             -4.6086344      10.094231    
Resetting global fix info from restart file:
  fix style: nvt, fix ID: 1
Generated 0 of 1 mixed pair_coeff terms from geometric mixing rule
All restart file global fix info was re-assigned
Neighbor list info ...
  update: every = 1 steps, delay = 20 steps, check = yes
  max neighbors/atom: 2000, page size: 100000
  master list distance cutoff = 3
  ghost atom cutoff = 3
  binsize = 1.5, bins = 5 5 5
  1 neighbor lists, perpetual/occasional/extra = 1 0 0
  (1) pair lj/cut, perpetual
      attributes: half, newton on
      pair build: half/bin/atomonly/newton
      stencil: half/bin/3d
      bin: standard
Setting up Verlet run ...
  Unit style    : lj
  Current step  : 0
  Time step     : 0.002
Per MPI rank memory allocation (min/avg/max) = 3.138 | 3.138 | 3.139 Mbytes
   Step          Temp          E_pair         E_mol          TotEng         Press     
         0   0.90216103    -5.958117       0             -4.6086344      10.094231    
Neighbor list info ...
  update: every = 1 steps, delay = 20 steps, check = yes
  max neighbors/atom: 2000, page size: 100000
  master list distance cutoff = 3
  ghost atom cutoff = 3
  binsize = 1.5, bins = 5 5 5
  1 neighbor lists, perpetual/occasional/extra = 1 0 0
  (1) pair lj/cut, perpetual
      attributes: half, newton on
      pair build: half/bin/atomonly/newton
      stencil: half/bin/3d
      bin: standard
Setting up Verlet run ...
  Unit style    : lj
  Current step  : 0
  Time step     : 0.002
Per MPI rank memory allocation (min/avg/max) = 3.138 | 3.138 | 3.139 Mbytes
   Step          Temp          E_pair         E_mol          TotEng         Press     
         0   0.90216103    -5.958117       0             -4.6086344      10.094231    
     25000   0.90878666    -6.0850936      0             -4.7257003      9.3857435    
Per MPI rank memory allocation (min/avg/max) = 3.138 | 3.138 | 3.139 Mbytes
   Step          Temp          E_pair         E_mol          TotEng         Press     
         0   0.90216103    -5.958117       0             -4.6086344      10.094231    
     25000   0.90878666    -6.0850936      0             -4.7257003      9.3857435    
      2000   1.0377424     -5.959459       0             -4.4071693      10.380437    
      2000   1.0377424     -5.959459       0             -4.4071693      10.380437    
      2000   1.0377424     -5.959459       0             -4.4071693      10.380437    
      2000   1.0377424     -5.959459       0             -4.4071693      10.380437    
      2000   1.0377424     -5.959459       0             -4.4071693      10.380437    
      2000   1.0377424     -5.959459       0             -4.4071693      10.380437    
      2000   1.0377424     -5.959459       0             -4.4071693      10.380437    
     25000   0.90878666    -6.0850936      0             -4.7257003      9.3857435    
      4000   0.99828909    -5.9271692      0             -4.4338951      10.479486    
      4000   0.99828909    -5.9271692      0             -4.4338951      10.479486    
      4000   0.99828909    -5.9271692      0             -4.4338951      10.479486    
      4000   0.99828909    -5.9271692      0             -4.4338951      10.479486    
      4000   0.99828909    -5.9271692      0             -4.4338951      10.479486    
     30000   0.85233117    -6.1601948      0             -4.8852494      8.7341485    
      4000   0.99828909    -5.9271692      0             -4.4338951      10.479486    
     30000   0.85233117    -6.1601948      0             -4.8852494      8.7341485    
      4000   0.99828909    -5.9271692      0             -4.4338951      10.479486    
      6000   1.0562257     -6.0606485      0             -4.4807109      9.6229548    
      6000   1.0562257     -6.0606485      0             -4.4807109      9.6229548    
      6000   1.0562257     -6.0606485      0             -4.4807109      9.6229548    
      6000   1.0562257     -6.0606485      0             -4.4807109      9.6229548    
      6000   1.0562257     -6.0606485      0             -4.4807109      9.6229548    
      6000   1.0562257     -6.0606485      0             -4.4807109      9.6229548    
      6000   1.0562257     -6.0606485      0             -4.4807109      9.6229548    
      8000   0.98774179    -6.0693491      0             -4.591852       9.5000217    
      8000   0.98774179    -6.0693491      0             -4.591852       9.5000217    
      8000   0.98774179    -6.0693491      0             -4.591852       9.5000217    
      8000   0.98774179    -6.0693491      0             -4.591852       9.5000217    
      8000   0.98774179    -6.0693491      0             -4.591852       9.5000217    
      8000   0.98774179    -6.0693491      0             -4.591852       9.5000217    
     30000   0.85233117    -6.1601948      0             -4.8852494      8.7341485    
     35000   0.90668493    -6.2008862      0             -4.8446366      8.6179148    
     35000   0.90668493    -6.2008862      0             -4.8446366      8.6179148    
     10000   1.0340334     -6.0625254      0             -4.5157838      9.6109731    
      8000   0.98774179    -6.0693491      0             -4.591852       9.5000217    
     10000   1.0340334     -6.0625254      0             -4.5157838      9.6109731    
     10000   1.0340334     -6.0625254      0             -4.5157838      9.6109731    
     10000   1.0340334     -6.0625254      0             -4.5157838      9.6109731    
     10000   1.0340334     -6.0625254      0             -4.5157838      9.6109731    
     10000   1.0340334     -6.0625254      0             -4.5157838      9.6109731    
     12000   1.0073606     -6.0217606      0             -4.5149171      9.8871032    
     37500   0.88378423    -6.1882981      0             -4.8663042      8.6235909    
Loop time of 3.03386 on 4 procs for 37500 steps with 360 atoms

Performance: 2135891.343 tau/day, 12360.482 timesteps/s, 4.450 Matom-step/s
99.6% CPU use with 4 MPI tasks x 1 OpenMP threads

MPI task timing breakdown:
Section |  min time  |  avg time  |  max time  |%varavg| %total
---------------------------------------------------------------
Pair    | 1.8289     | 1.8697     | 1.8973     |   1.9 | 61.63
Neigh   | 0.15651    | 0.1596     | 0.1614     |   0.5 |  5.26
Comm    | 0.83561    | 0.86101    | 0.903      |   2.8 | 28.38
Output  | 0.016396   | 0.019492   | 0.026437   |   2.9 |  0.64
Modify  | 0.085956   | 0.088173   | 0.090891   |   0.7 |  2.91
Other   |            | 0.03588    |            |       |  1.18

Nlocal:             90 ave          93 max          88 min
Histogram: 1 0 1 0 1 0 0 0 0 1
Nghost:           1233 ave        1255 max        1206 min
Histogram: 1 0 0 0 0 1 1 0 0 1
Neighs:        5211.25 ave        5318 max        5104 min
Histogram: 1 0 1 0 0 0 0 1 0 1

Total # of neighbors = 20845
Ave neighs/atom = 57.902778
Neighbor list builds = 964
Dangerous builds = 0
     37500   0.88378423    -6.1882981      0             -4.8663042      8.6235909    
Loop time of 3.03807 on 4 procs for 37500 steps with 360 atoms

Performance: 2132934.090 tau/day, 12343.369 timesteps/s, 4.444 Matom-step/s
99.6% CPU use with 4 MPI tasks x 1 OpenMP threads

MPI task timing breakdown:
Section |  min time  |  avg time  |  max time  |%varavg| %total
---------------------------------------------------------------
Pair    | 1.8392     | 1.8768     | 1.8974     |   1.6 | 61.78
Neigh   | 0.15659    | 0.1597     | 0.16138    |   0.5 |  5.26
Comm    | 0.83996    | 0.85972    | 0.89881    |   2.5 | 28.30
Output  | 0.01456    | 0.017318   | 0.023307   |   2.7 |  0.57
Modify  | 0.087326   | 0.089347   | 0.091457   |   0.5 |  2.94
Other   |            | 0.03521    |            |       |  1.16

Nlocal:             90 ave          93 max          88 min
Histogram: 1 0 1 0 1 0 0 0 0 1
Nghost:           1233 ave        1255 max        1206 min
Histogram: 1 0 0 0 0 1 1 0 0 1
Neighs:        5211.25 ave        5318 max        5104 min
Histogram: 1 0 1 0 0 0 0 1 0 1

Total # of neighbors = 20845
Ave neighs/atom = 57.902778
Neighbor list builds = 964
Dangerous builds = 0
Total wall time: 0:00:03
Total wall time: 0:00:03
     12500   1.0090783     -5.9478796      0             -4.4384667      10.47427     
Loop time of 1.06226 on 4 procs for 12500 steps with 360 atoms

Performance: 2033403.594 tau/day, 11767.382 timesteps/s, 4.236 Matom-step/s
99.4% CPU use with 4 MPI tasks x 1 OpenMP threads

MPI task timing breakdown:
Section |  min time  |  avg time  |  max time  |%varavg| %total
---------------------------------------------------------------
Pair    | 0.63611    | 0.64674    | 0.65413    |   0.8 | 60.88
Neigh   | 0.056606   | 0.057438   | 0.058073   |   0.2 |  5.41
Comm    | 0.28463    | 0.29486    | 0.30533    |   1.4 | 27.76
Output  | 0.013227   | 0.016389   | 0.023532   |   3.3 |  1.54
Modify  | 0.029096   | 0.030743   | 0.032642   |   0.9 |  2.89
Other   |            | 0.01608    |            |       |  1.51

Nlocal:             90 ave          94 max          87 min
Histogram: 2 0 0 0 0 0 0 1 0 1
Nghost:           1243 ave        1266 max        1212 min
Histogram: 1 0 0 0 0 1 0 1 0 1
Neighs:           5192 ave        5430 max        4973 min
Histogram: 1 0 0 0 1 1 0 0 0 1

Total # of neighbors = 20768
Ave neighs/atom = 57.688889
Neighbor list builds = 336
Dangerous builds = 0
Total wall time: 0:00:01
     10000   1.0340334     -6.0625254      0             -4.5157838      9.6109731    
     12000   1.0073606     -6.0217606      0             -4.5149171      9.8871032    
     12000   1.0073606     -6.0217606      0             -4.5149171      9.8871032    
     12000   1.0073606     -6.0217606      0             -4.5149171      9.8871032    
     12000   1.0073606     -6.0217606      0             -4.5149171      9.8871032    
     12000   1.0073606     -6.0217606      0             -4.5149171      9.8871032    
     12500   1.0090783     -5.9478796      0             -4.4384667      10.47427     
Loop time of 1.17341 on 4 procs for 12500 steps with 360 atoms

Performance: 1840788.519 tau/day, 10652.711 timesteps/s, 3.835 Matom-step/s
99.4% CPU use with 4 MPI tasks x 1 OpenMP threads

MPI task timing breakdown:
Section |  min time  |  avg time  |  max time  |%varavg| %total
---------------------------------------------------------------
Pair    | 0.63244    | 0.64462    | 0.65055    |   0.9 | 54.94
Neigh   | 0.056579   | 0.05746    | 0.058367   |   0.3 |  4.90
Comm    | 0.38055    | 0.38964    | 0.40118    |   1.2 | 33.21
Output  | 0.019065   | 0.02311    | 0.031523   |   3.3 |  1.97
Modify  | 0.036482   | 0.038731   | 0.04116    |   0.8 |  3.30
Other   |            | 0.01985    |            |       |  1.69

Nlocal:             90 ave          94 max          87 min
Histogram: 2 0 0 0 0 0 0 1 0 1
Nghost:           1243 ave        1266 max        1212 min
Histogram: 1 0 0 0 0 1 0 1 0 1
Neighs:           5192 ave        5430 max        4973 min
Histogram: 1 0 0 0 1 1 0 0 0 1

Total # of neighbors = 20768
Ave neighs/atom = 57.688889
Neighbor list builds = 336
Dangerous builds = 0
Total wall time: 0:00:01
     12500   1.0090783     -5.9478796      0             -4.4384667      10.47427     
Loop time of 1.16849 on 4 procs for 12500 steps with 360 atoms

Performance: 1848532.652 tau/day, 10697.527 timesteps/s, 3.851 Matom-step/s
99.4% CPU use with 4 MPI tasks x 1 OpenMP threads

MPI task timing breakdown:
Section |  min time  |  avg time  |  max time  |%varavg| %total
---------------------------------------------------------------
Pair    | 0.631      | 0.64427    | 0.65007    |   1.0 | 55.14
Neigh   | 0.056541   | 0.057647   | 0.058978   |   0.4 |  4.93
Comm    | 0.38036    | 0.38882    | 0.40152    |   1.2 | 33.28
Output  | 0.015872   | 0.019519   | 0.026725   |   3.1 |  1.67
Modify  | 0.036377   | 0.038838   | 0.041024   |   0.9 |  3.32
Other   |            | 0.0194     |            |       |  1.66

Nlocal:             90 ave          94 max          87 min
Histogram: 2 0 0 0 0 0 0 1 0 1
Nghost:           1243 ave        1266 max        1212 min
Histogram: 1 0 0 0 0 1 0 1 0 1
Neighs:           5192 ave        5430 max        4973 min
Histogram: 1 0 0 0 1 1 0 0 0 1

Total # of neighbors = 20768
Ave neighs/atom = 57.688889
Neighbor list builds = 336
Dangerous builds = 0
Total wall time: 0:00:01
     12500   1.0090783     -5.9478796      0             -4.4384667      10.47427     
Loop time of 1.1724 on 4 procs for 12500 steps with 360 atoms

Performance: 1842374.003 tau/day, 10661.887 timesteps/s, 3.838 Matom-step/s
99.3% CPU use with 4 MPI tasks x 1 OpenMP threads

MPI task timing breakdown:
Section |  min time  |  avg time  |  max time  |%varavg| %total
---------------------------------------------------------------
Pair    | 0.63698    | 0.64671    | 0.65065    |   0.7 | 55.16
Neigh   | 0.056672   | 0.057474   | 0.058034   |   0.2 |  4.90
Comm    | 0.38164    | 0.38856    | 0.39802    |   1.0 | 33.14
Output  | 0.017174   | 0.021005   | 0.028766   |   3.2 |  1.79
Modify  | 0.037928   | 0.038993   | 0.040477   |   0.5 |  3.33
Other   |            | 0.01966    |            |       |  1.68

Nlocal:             90 ave          94 max          87 min
Histogram: 2 0 0 0 0 0 0 1 0 1
Nghost:           1243 ave        1266 max        1212 min
Histogram: 1 0 0 0 0 1 0 1 0 1
Neighs:           5192 ave        5430 max        4973 min
Histogram: 1 0 0 0 1 1 0 0 0 1

Total # of neighbors = 20768
Ave neighs/atom = 57.688889
Neighbor list builds = 336
Dangerous builds = 0
Total wall time: 0:00:01
     12500   1.0090783     -5.9478796      0             -4.4384667      10.47427     
Loop time of 1.17465 on 4 procs for 12500 steps with 360 atoms

Performance: 1838842.273 tau/day, 10641.448 timesteps/s, 3.831 Matom-step/s
99.3% CPU use with 4 MPI tasks x 1 OpenMP threads

MPI task timing breakdown:
Section |  min time  |  avg time  |  max time  |%varavg| %total
---------------------------------------------------------------
Pair    | 0.63051    | 0.64568    | 0.65289    |   1.1 | 54.97
Neigh   | 0.056551   | 0.057442   | 0.058109   |   0.2 |  4.89
Comm    | 0.38506    | 0.39145    | 0.40616    |   1.4 | 33.32
Output  | 0.016852   | 0.020594   | 0.028003   |   3.1 |  1.75
Modify  | 0.037671   | 0.039667   | 0.041715   |   0.7 |  3.38
Other   |            | 0.01982    |            |       |  1.69

Nlocal:             90 ave          94 max          87 min
Histogram: 2 0 0 0 0 0 0 1 0 1
Nghost:           1243 ave        1266 max        1212 min
Histogram: 1 0 0 0 0 1 0 1 0 1
Neighs:           5192 ave        5430 max        4973 min
Histogram: 1 0 0 0 1 1 0 0 0 1

Total # of neighbors = 20768
Ave neighs/atom = 57.688889
Neighbor list builds = 336
Dangerous builds = 0
Total wall time: 0:00:01
     12500   1.0090783     -5.9478796      0             -4.4384667      10.47427     
Loop time of 1.17906 on 4 procs for 12500 steps with 360 atoms

Performance: 1831960.335 tau/day, 10601.622 timesteps/s, 3.817 Matom-step/s
99.3% CPU use with 4 MPI tasks x 1 OpenMP threads

MPI task timing breakdown:
Section |  min time  |  avg time  |  max time  |%varavg| %total
---------------------------------------------------------------
Pair    | 0.63552    | 0.65052    | 0.6594     |   1.1 | 55.17
Neigh   | 0.056557   | 0.057564   | 0.058183   |   0.3 |  4.88
Comm    | 0.38435    | 0.39114    | 0.40579    |   1.4 | 33.17
Output  | 0.01716    | 0.020961   | 0.02862    |   3.1 |  1.78
Modify  | 0.037318   | 0.039208   | 0.041021   |   0.7 |  3.33
Other   |            | 0.01967    |            |       |  1.67

Nlocal:             90 ave          94 max          87 min
Histogram: 2 0 0 0 0 0 0 1 0 1
Nghost:           1243 ave        1266 max        1212 min
Histogram: 1 0 0 0 0 1 0 1 0 1
Neighs:           5192 ave        5430 max        4973 min
Histogram: 1 0 0 0 1 1 0 0 0 1

Total # of neighbors = 20768
Ave neighs/atom = 57.688889
Neighbor list builds = 336
Dangerous builds = 0
Total wall time: 0:00:01
     35000   0.90668493    -6.2008862      0             -4.8446366      8.6179148    
     12000   1.0073606     -6.0217606      0             -4.5149171      9.8871032    
     12500   1.0090783     -5.9478796      0             -4.4384667      10.47427     
Loop time of 1.34385 on 4 procs for 12500 steps with 360 atoms

Performance: 1607323.992 tau/day, 9301.643 timesteps/s, 3.349 Matom-step/s
99.4% CPU use with 4 MPI tasks x 1 OpenMP threads

MPI task timing breakdown:
Section |  min time  |  avg time  |  max time  |%varavg| %total
---------------------------------------------------------------
Pair    | 0.63661    | 0.6509     | 0.65828    |   1.1 | 48.44
Neigh   | 0.056694   | 0.057513   | 0.058148   |   0.2 |  4.28
Comm    | 0.51128    | 0.54351    | 0.58087    |   3.6 | 40.44
Output  | 0.016128   | 0.019507   | 0.026594   |   3.0 |  1.45
Modify  | 0.031102   | 0.053727   | 0.074965   |   8.4 |  4.00
Other   |            | 0.01869    |            |       |  1.39

Nlocal:             90 ave          94 max          87 min
Histogram: 2 0 0 0 0 0 0 1 0 1
Nghost:           1243 ave        1266 max        1212 min
Histogram: 1 0 0 0 0 1 0 1 0 1
Neighs:           5192 ave        5430 max        4973 min
Histogram: 1 0 0 0 1 1 0 0 0 1

Total # of neighbors = 20768
Ave neighs/atom = 57.688889
Neighbor list builds = 336
Dangerous builds = 0
Total wall time: 0:00:01
LAMMPS (15 Sep 2022)
OMP_NUM_THREADS environment is not set. Defaulting to 1 thread. (src/comm.cpp:98)
  using 1 OpenMP thread(s) per MPI task
LAMMPS (15 Sep 2022)
OMP_NUM_THREADS environment is not set. Defaulting to 1 thread. (src/comm.cpp:98)
  using 1 OpenMP thread(s) per MPI task
Reading restart file ...
Reading restart file ...
LAMMPS (15 Sep 2022)
OMP_NUM_THREADS environment is not set. Defaulting to 1 thread. (src/comm.cpp:98)
  using 1 OpenMP thread(s) per MPI task
     37500   0.88378423    -6.1882981      0             -4.8663042      8.6235909    
Loop time of 3.34316 on 4 procs for 37500 steps with 360 atoms

Performance: 1938288.150 tau/day, 11216.945 timesteps/s, 4.038 Matom-step/s
99.6% CPU use with 4 MPI tasks x 1 OpenMP threads

MPI task timing breakdown:
Section |  min time  |  avg time  |  max time  |%varavg| %total
---------------------------------------------------------------
Pair    | 1.824      | 1.8708     | 1.8989     |   2.1 | 55.96
Neigh   | 0.15649    | 0.15956    | 0.1613     |   0.5 |  4.77
Comm    | 1.1064     | 1.1335     | 1.18       |   2.7 | 33.90
Output  | 0.018765   | 0.022501   | 0.030013   |   3.0 |  0.67
Modify  | 0.10954    | 0.11353    | 0.11771    |   0.9 |  3.40
Other   |            | 0.04333    |            |       |  1.30

Nlocal:             90 ave          93 max          88 min
Histogram: 1 0 1 0 1 0 0 0 0 1
Nghost:           1233 ave        1255 max        1206 min
Histogram: 1 0 0 0 0 1 1 0 0 1
Neighs:        5211.25 ave        5318 max        5104 min
Histogram: 1 0 1 0 0 0 0 1 0 1

Total # of neighbors = 20845
Ave neighs/atom = 57.902778
Neighbor list builds = 964
Dangerous builds = 0
Total wall time: 0:00:03
Reading restart file ...
  restart file = 15 Sep 2022, LAMMPS = 15 Sep 2022
  restoring atom style atomic from restart
  orthogonal box = (0 0 0) to (6.6943295 6.6943295 6.6943295)
  1 by 2 by 2 MPI processor grid
  restoring pair style lj/cut from restart
  360 atoms
  read_restart CPU = 0.002 seconds
Setting up equilibration run
  restart file = 15 Sep 2022, LAMMPS = 15 Sep 2022
  restoring atom style atomic from restart
  orthogonal box = (0 0 0) to (6.6943295 6.6943295 6.6943295)
  1 by 2 by 2 MPI processor grid
  restoring pair style lj/cut from restart
  360 atoms
  read_restart CPU = 0.053 seconds
Setting up equilibration run
  restart file = 15 Sep 2022, LAMMPS = 15 Sep 2022
  restoring atom style atomic from restart
  orthogonal box = (0 0 0) to (6.6943295 6.6943295 6.6943295)
  1 by 2 by 2 MPI processor grid
  restoring pair style lj/cut from restart
  360 atoms
  read_restart CPU = 0.053 seconds
Setting up equilibration run
Resetting global fix info from restart file:
  fix style: nvt, fix ID: 1
Generated 0 of 1 mixed pair_coeff terms from geometric mixing rule
All restart file global fix info was re-assigned
Neighbor list info ...
  update: every = 1 steps, delay = 25 steps, check = yes
  max neighbors/atom: 2000, page size: 100000
  master list distance cutoff = 3
  ghost atom cutoff = 3
  binsize = 1.5, bins = 5 5 5
  1 neighbor lists, perpetual/occasional/extra = 1 0 0
  (1) pair lj/cut, perpetual
      attributes: half, newton on
      pair build: half/bin/atomonly/newton
      stencil: half/bin/3d
      bin: standard
Setting up Verlet run ...
  Unit style    : lj
  Current step  : 0
  Time step     : 0.002
Resetting global fix info from restart file:
  fix style: nvt, fix ID: 1
Generated 0 of 1 mixed pair_coeff terms from geometric mixing rule
All restart file global fix info was re-assigned
Neighbor list info ...
  update: every = 1 steps, delay = 25 steps, check = yes
  max neighbors/atom: 2000, page size: 100000
  master list distance cutoff = 3
  ghost atom cutoff = 3
  binsize = 1.5, bins = 5 5 5
  1 neighbor lists, perpetual/occasional/extra = 1 0 0
  (1) pair lj/cut, perpetual
      attributes: half, newton on
      pair build: half/bin/atomonly/newton
      stencil: half/bin/3d
      bin: standard
Setting up Verlet run ...
  Unit style    : lj
  Current step  : 0
  Time step     : 0.002
Per MPI rank memory allocation (min/avg/max) = 3.137 | 3.138 | 3.139 Mbytes
   Step          Temp          E_pair         E_mol          TotEng         Press     
         0   0.78847697    -6.2868353      0             -5.1074052      7.9047593    
Per MPI rank memory allocation (min/avg/max) = 3.137 | 3.138 | 3.139 Mbytes
   Step          Temp          E_pair         E_mol          TotEng         Press     
         0   0.78847697    -6.2868353      0             -5.1074052      7.9047593    
LAMMPS (15 Sep 2022)
OMP_NUM_THREADS environment is not set. Defaulting to 1 thread. (src/comm.cpp:98)
  using 1 OpenMP thread(s) per MPI task
LAMMPS (15 Sep 2022)
LAMMPS (15 Sep 2022)
OMP_NUM_THREADS environment is not set. Defaulting to 1 thread. (src/comm.cpp:98)
  using 1 OpenMP thread(s) per MPI task
OMP_NUM_THREADS environment is not set. Defaulting to 1 thread. (src/comm.cpp:98)
  using 1 OpenMP thread(s) per MPI task
LAMMPS (15 Sep 2022)
OMP_NUM_THREADS environment is not set. Defaulting to 1 thread. (src/comm.cpp:98)
  using 1 OpenMP thread(s) per MPI task
LAMMPS (15 Sep 2022)
OMP_NUM_THREADS environment is not set. Defaulting to 1 thread. (src/comm.cpp:98)
  using 1 OpenMP thread(s) per MPI task
Resetting global fix info from restart file:
  fix style: nvt, fix ID: 1
Reading restart file ...
Generated 0 of 1 mixed pair_coeff terms from geometric mixing rule
All restart file global fix info was re-assigned
Neighbor list info ...
  update: every = 1 steps, delay = 25 steps, check = yes
  max neighbors/atom: 2000, page size: 100000
  master list distance cutoff = 3
  ghost atom cutoff = 3
  binsize = 1.5, bins = 5 5 5
  1 neighbor lists, perpetual/occasional/extra = 1 0 0
  (1) pair lj/cut, perpetual
      attributes: half, newton on
      pair build: half/bin/atomonly/newton
      stencil: half/bin/3d
      bin: standard
Setting up Verlet run ...
  Unit style    : lj
  Current step  : 0
  Time step     : 0.002
  restart file = 15 Sep 2022, LAMMPS = 15 Sep 2022
  restoring atom style atomic from restart
  orthogonal box = (0 0 0) to (6.6943295 6.6943295 6.6943295)
Reading restart file ...
Reading restart file ...
Reading restart file ...
  restart file = 15 Sep 2022, LAMMPS = 15 Sep 2022
  restoring atom style atomic from restart
  orthogonal box = (0 0 0) to (6.6943295 6.6943295 6.6943295)
  restart file = 15 Sep 2022, LAMMPS = 15 Sep 2022
  restoring atom style atomic from restart
  orthogonal box = (0 0 0) to (6.6943295 6.6943295 6.6943295)
  restart file = 15 Sep 2022, LAMMPS = 15 Sep 2022
  restoring atom style atomic from restart
  orthogonal box = (0 0 0) to (6.6943295 6.6943295 6.6943295)
Reading restart file ...
  restart file = 15 Sep 2022, LAMMPS = 15 Sep 2022
  restoring atom style atomic from restart
  orthogonal box = (0 0 0) to (6.6943295 6.6943295 6.6943295)
  1 by 2 by 2 MPI processor grid
  restoring pair style lj/cut from restart
  360 atoms
  read_restart CPU = 0.007 seconds
Setting up equilibration run
Per MPI rank memory allocation (min/avg/max) = 3.137 | 3.138 | 3.138 Mbytes
   Step          Temp          E_pair         E_mol          TotEng         Press     
         0   0.90369682    -6.2380635      0             -4.8862837      8.4530268    
Resetting global fix info from restart file:
  fix style: nvt, fix ID: 1
Generated 0 of 1 mixed pair_coeff terms from geometric mixing rule
All restart file global fix info was re-assigned
Neighbor list info ...
  update: every = 1 steps, delay = 25 steps, check = yes
  max neighbors/atom: 2000, page size: 100000
  master list distance cutoff = 3
  ghost atom cutoff = 3
  binsize = 1.5, bins = 5 5 5
  1 neighbor lists, perpetual/occasional/extra = 1 0 0
  (1) pair lj/cut, perpetual
      attributes: half, newton on
      pair build: half/bin/atomonly/newton
      stencil: half/bin/3d
      bin: standard
Setting up Verlet run ...
  Unit style    : lj
  Current step  : 0
  Time step     : 0.002
  1 by 2 by 2 MPI processor grid
  restoring pair style lj/cut from restart
  1 by 2 by 2 MPI processor grid
  restoring pair style lj/cut from restart
  360 atoms
  read_restart CPU = 0.008 seconds
  1 by 2 by 2 MPI processor grid
  restoring pair style lj/cut from restart
  360 atoms
  read_restart CPU = 0.008 seconds
  1 by 2 by 2 MPI processor grid
  restoring pair style lj/cut from restart
  360 atoms
  read_restart CPU = 0.008 seconds
Setting up equilibration run
Resetting global fix info from restart file:
  fix style: nvt, fix ID: 1
Generated 0 of 1 mixed pair_coeff terms from geometric mixing rule
All restart file global fix info was re-assigned
Neighbor list info ...
  update: every = 1 steps, delay = 25 steps, check = yes
  max neighbors/atom: 2000, page size: 100000
  master list distance cutoff = 3
  ghost atom cutoff = 3
  binsize = 1.5, bins = 5 5 5
  1 neighbor lists, perpetual/occasional/extra = 1 0 0
  (1) pair lj/cut, perpetual
      attributes: half, newton on
      pair build: half/bin/atomonly/newton
      stencil: half/bin/3d
      bin: standard
Setting up Verlet run ...
  Unit style    : lj
  Current step  : 0
  Time step     : 0.002
  360 atoms
  read_restart CPU = 0.008 seconds
Setting up equilibration run
Resetting global fix info from restart file:
  fix style: nvt, fix ID: 1
Generated 0 of 1 mixed pair_coeff terms from geometric mixing rule
All restart file global fix info was re-assigned
Neighbor list info ...
  update: every = 1 steps, delay = 25 steps, check = yes
  max neighbors/atom: 2000, page size: 100000
  master list distance cutoff = 3
  ghost atom cutoff = 3
  binsize = 1.5, bins = 5 5 5
  1 neighbor lists, perpetual/occasional/extra = 1 0 0
  (1) pair lj/cut, perpetual
      attributes: half, newton on
      pair build: half/bin/atomonly/newton
      stencil: half/bin/3d
      bin: standard
Setting up Verlet run ...
  Unit style    : lj
  Current step  : 0
  Time step     : 0.002
Setting up equilibration run
Resetting global fix info from restart file:
  fix style: nvt, fix ID: 1
Generated 0 of 1 mixed pair_coeff terms from geometric mixing rule
All restart file global fix info was re-assigned
Neighbor list info ...
  update: every = 1 steps, delay = 25 steps, check = yes
  max neighbors/atom: 2000, page size: 100000
  master list distance cutoff = 3
  ghost atom cutoff = 3
  binsize = 1.5, bins = 5 5 5
  1 neighbor lists, perpetual/occasional/extra = 1 0 0
  (1) pair lj/cut, perpetual
      attributes: half, newton on
      pair build: half/bin/atomonly/newton
      stencil: half/bin/3d
      bin: standard
Setting up Verlet run ...
  Unit style    : lj
  Current step  : 0
  Time step     : 0.002
Setting up equilibration run
Resetting global fix info from restart file:
  fix style: nvt, fix ID: 1
Generated 0 of 1 mixed pair_coeff terms from geometric mixing rule
All restart file global fix info was re-assigned
Neighbor list info ...
  update: every = 1 steps, delay = 25 steps, check = yes
  max neighbors/atom: 2000, page size: 100000
  master list distance cutoff = 3
  ghost atom cutoff = 3
  binsize = 1.5, bins = 5 5 5
  1 neighbor lists, perpetual/occasional/extra = 1 0 0
  (1) pair lj/cut, perpetual
      attributes: half, newton on
      pair build: half/bin/atomonly/newton
      stencil: half/bin/3d
      bin: standard
Setting up Verlet run ...
  Unit style    : lj
  Current step  : 0
  Time step     : 0.002
Per MPI rank memory allocation (min/avg/max) = 3.137 | 3.138 | 3.138 Mbytes
   Step          Temp          E_pair         E_mol          TotEng         Press     
         0   0.90369682    -6.2380635      0             -4.8862837      8.4530268    
Per MPI rank memory allocation (min/avg/max) = 3.137 | 3.138 | 3.138 Mbytes
   Step          Temp          E_pair         E_mol          TotEng         Press     
         0   0.90369682    -6.2380635      0             -4.8862837      8.4530268    
Per MPI rank memory allocation (min/avg/max) = 3.137 | 3.138 | 3.138 Mbytes
   Step          Temp          E_pair         E_mol          TotEng         Press     
Per MPI rank memory allocation (min/avg/max) = 3.137 | 3.138 | 3.138 Mbytes
   Step          Temp          E_pair         E_mol          TotEng         Press     
         0   0.90369682    -6.2380635      0             -4.8862837      8.4530268    
Per MPI rank memory allocation (min/avg/max) = 3.137 | 3.138 | 3.138 Mbytes
   Step          Temp          E_pair         E_mol          TotEng         Press     
         0   0.90369682    -6.2380635      0             -4.8862837      8.4530268    
         0   0.90369682    -6.2380635      0             -4.8862837      8.4530268    
LAMMPS (15 Sep 2022)
OMP_NUM_THREADS environment is not set. Defaulting to 1 thread. (src/comm.cpp:98)
  using 1 OpenMP thread(s) per MPI task
Reading restart file ...
  restart file = 15 Sep 2022, LAMMPS = 15 Sep 2022
  restoring atom style atomic from restart
  orthogonal box = (0 0 0) to (6.6943295 6.6943295 6.6943295)
  1 by 2 by 2 MPI processor grid
  restoring pair style lj/cut from restart
  360 atoms
  read_restart CPU = 0.002 seconds
Setting up equilibration run
Resetting global fix info from restart file:
  fix style: nvt, fix ID: 1
Generated 0 of 1 mixed pair_coeff terms from geometric mixing rule
All restart file global fix info was re-assigned
Neighbor list info ...
  update: every = 1 steps, delay = 25 steps, check = yes
  max neighbors/atom: 2000, page size: 100000
  master list distance cutoff = 3
  ghost atom cutoff = 3
  binsize = 1.5, bins = 5 5 5
  1 neighbor lists, perpetual/occasional/extra = 1 0 0
  (1) pair lj/cut, perpetual
      attributes: half, newton on
      pair build: half/bin/atomonly/newton
      stencil: half/bin/3d
      bin: standard
Setting up Verlet run ...
  Unit style    : lj
  Current step  : 0
  Time step     : 0.002
Per MPI rank memory allocation (min/avg/max) = 3.137 | 3.138 | 3.138 Mbytes
   Step          Temp          E_pair         E_mol          TotEng         Press     
         0   0.90369682    -6.2380635      0             -4.8862837      8.4530268    
LAMMPS (15 Sep 2022)
OMP_NUM_THREADS environment is not set. Defaulting to 1 thread. (src/comm.cpp:98)
  using 1 OpenMP thread(s) per MPI task
Reading restart file ...
  restart file = 15 Sep 2022, LAMMPS = 15 Sep 2022
  restoring atom style atomic from restart
  orthogonal box = (0 0 0) to (6.6943295 6.6943295 6.6943295)
  1 by 2 by 2 MPI processor grid
  restoring pair style lj/cut from restart
  360 atoms
  read_restart CPU = 0.002 seconds
Setting up equilibration run
Resetting global fix info from restart file:
  fix style: nvt, fix ID: 1
Generated 0 of 1 mixed pair_coeff terms from geometric mixing rule
All restart file global fix info was re-assigned
Neighbor list info ...
  update: every = 1 steps, delay = 25 steps, check = yes
  max neighbors/atom: 2000, page size: 100000
  master list distance cutoff = 3
  ghost atom cutoff = 3
  binsize = 1.5, bins = 5 5 5
  1 neighbor lists, perpetual/occasional/extra = 1 0 0
  (1) pair lj/cut, perpetual
      attributes: half, newton on
      pair build: half/bin/atomonly/newton
      stencil: half/bin/3d
      bin: standard
Setting up Verlet run ...
  Unit style    : lj
  Current step  : 0
  Time step     : 0.002
Per MPI rank memory allocation (min/avg/max) = 3.137 | 3.138 | 3.139 Mbytes
   Step          Temp          E_pair         E_mol          TotEng         Press     
         0   0.78847697    -6.2868353      0             -5.1074052      7.9047593    
      5000   0.84892775    -6.4320499      0             -5.1621955      7.1377805    
      5000   0.84892775    -6.4320499      0             -5.1621955      7.1377805    
      5000   0.90413122    -6.2582673      0             -4.9058377      8.2064731    
      5000   0.90413122    -6.2582673      0             -4.9058377      8.2064731    
      5000   0.90413122    -6.2582673      0             -4.9058377      8.2064731    
      5000   0.90413122    -6.2582673      0             -4.9058377      8.2064731    
      5000   0.90413122    -6.2582673      0             -4.9058377      8.2064731    
      5000   0.90413122    -6.2582673      0             -4.9058377      8.2064731    
      5000   0.84892775    -6.4320499      0             -5.1621955      7.1377805    
      5000   0.90413122    -6.2582673      0             -4.9058377      8.2064731    
     10000   0.82594327    -6.3374198      0             -5.1019464      7.6728457    
     10000   0.82594327    -6.3374198      0             -5.1019464      7.6728457    
     10000   0.93233959    -6.2776196      0             -4.882995       8.1416341    
     10000   0.93233959    -6.2776196      0             -4.882995       8.1416341    
     10000   0.93233959    -6.2776196      0             -4.882995       8.1416341    
     10000   0.93233959    -6.2776196      0             -4.882995       8.1416341    
     10000   0.93233959    -6.2776196      0             -4.882995       8.1416341    
     10000   0.93233959    -6.2776196      0             -4.882995       8.1416341    
     10000   0.82594327    -6.3374198      0             -5.1019464      7.6728457    
     15000   0.76704159    -6.3644904      0             -5.217124       7.4926252    
     15000   0.76704159    -6.3644904      0             -5.217124       7.4926252    
     10000   0.93233959    -6.2776196      0             -4.882995       8.1416341    
     15000   0.96603613    -6.2042844      0             -4.7592553      8.8152384    
     15000   0.96603613    -6.2042844      0             -4.7592553      8.8152384    
     15000   0.96603613    -6.2042844      0             -4.7592553      8.8152384    
     15000   0.96603613    -6.2042844      0             -4.7592553      8.8152384    
     15000   0.96603613    -6.2042844      0             -4.7592553      8.8152384    
     15000   0.96603613    -6.2042844      0             -4.7592553      8.8152384    
     20000   0.812198      -6.3587502      0             -5.1438373      7.6862133    
     20000   0.812198      -6.3587502      0             -5.1438373      7.6862133    
     15000   0.76704159    -6.3644904      0             -5.217124       7.4926252    
     15000   0.96603613    -6.2042844      0             -4.7592553      8.8152384    
     20000   0.89216305    -6.2330259      0             -4.8984987      8.4949036    
     20000   0.89216305    -6.2330259      0             -4.8984987      8.4949036    
     20000   0.89216305    -6.2330259      0             -4.8984987      8.4949036    
     20000   0.89216305    -6.2330259      0             -4.8984987      8.4949036    
     20000   0.89216305    -6.2330259      0             -4.8984987      8.4949036    
     20000   0.89216305    -6.2330259      0             -4.8984987      8.4949036    
     25000   0.76899211    -6.3672302      0             -5.2169462      7.4953855    
     25000   0.76899211    -6.3672302      0             -5.2169462      7.4953855    
     20000   0.812198      -6.3587502      0             -5.1438373      7.6862133    
     25000   0.90878666    -6.0850936      0             -4.7257003      9.3857435    
     20000   0.89216305    -6.2330259      0             -4.8984987      8.4949036    
     30000   0.77943235    -6.3560841      0             -5.1901832      7.6041923    
     30000   0.77943235    -6.3560841      0             -5.1901832      7.6041923    
     25000   0.90878666    -6.0850936      0             -4.7257003      9.3857435    
     25000   0.90878666    -6.0850936      0             -4.7257003      9.3857435    
     25000   0.90878666    -6.0850936      0             -4.7257003      9.3857435    
     25000   0.90878666    -6.0850936      0             -4.7257003      9.3857435    
     25000   0.90878666    -6.0850936      0             -4.7257003      9.3857435    
     25000   0.76899211    -6.3672302      0             -5.2169462      7.4953855    
     30000   0.85233117    -6.1601948      0             -4.8852494      8.7341485    
     35000   0.74555749    -6.4228082      0             -5.3075785      7.0653295    
     35000   0.74555749    -6.4228082      0             -5.3075785      7.0653295    
     25000   0.90878666    -6.0850936      0             -4.7257003      9.3857435    
     30000   0.85233117    -6.1601948      0             -4.8852494      8.7341485    
     30000   0.85233117    -6.1601948      0             -4.8852494      8.7341485    
     30000   0.85233117    -6.1601948      0             -4.8852494      8.7341485    
     30000   0.85233117    -6.1601948      0             -4.8852494      8.7341485    
     30000   0.85233117    -6.1601948      0             -4.8852494      8.7341485    
     30000   0.77943235    -6.3560841      0             -5.1901832      7.6041923    
     37500   0.86781759    -6.2820567      0             -4.9839462      8.1957943    
Loop time of 3.00735 on 4 procs for 37500 steps with 360 atoms

Performance: 2154721.893 tau/day, 12469.455 timesteps/s, 4.489 Matom-step/s
99.6% CPU use with 4 MPI tasks x 1 OpenMP threads

MPI task timing breakdown:
Section |  min time  |  avg time  |  max time  |%varavg| %total
---------------------------------------------------------------
Pair    | 1.793      | 1.8707     | 1.9096     |   3.4 | 62.20
Neigh   | 0.14286    | 0.14844    | 0.15128    |   0.9 |  4.94
Comm    | 0.80136    | 0.84537    | 0.92717    |   5.3 | 28.11
Output  | 0.014771   | 0.017612   | 0.023799   |   2.7 |  0.59
Modify  | 0.086969   | 0.088584   | 0.090588   |   0.5 |  2.95
Other   |            | 0.03669    |            |       |  1.22

Nlocal:             90 ave          96 max          87 min
Histogram: 1 1 1 0 0 0 0 0 0 1
Nghost:        1242.25 ave        1254 max        1226 min
Histogram: 1 0 0 1 0 0 0 0 0 2
Neighs:         5182.5 ave        5478 max        5007 min
Histogram: 1 1 0 1 0 0 0 0 0 1

Total # of neighbors = 20730
Ave neighs/atom = 57.583333
Neighbor list builds = 895
Dangerous builds = 1
Total wall time: 0:00:03
     37500   0.86781759    -6.2820567      0             -4.9839462      8.1957943    
Loop time of 3.01139 on 4 procs for 37500 steps with 360 atoms

Performance: 2151832.427 tau/day, 12452.734 timesteps/s, 4.483 Matom-step/s
99.6% CPU use with 4 MPI tasks x 1 OpenMP threads

MPI task timing breakdown:
Section |  min time  |  avg time  |  max time  |%varavg| %total
---------------------------------------------------------------
Pair    | 1.7904     | 1.871      | 1.9172     |   3.5 | 62.13
Neigh   | 0.14283    | 0.14804    | 0.15056    |   0.8 |  4.92
Comm    | 0.80292    | 0.85137    | 0.9348     |   5.4 | 28.27
Output  | 0.013911   | 0.016706   | 0.022808   |   2.8 |  0.55
Modify  | 0.084337   | 0.087727   | 0.090869   |   0.8 |  2.91
Other   |            | 0.03651    |            |       |  1.21

Nlocal:             90 ave          96 max          87 min
Histogram: 1 1 1 0 0 0 0 0 0 1
Nghost:        1242.25 ave        1254 max        1226 min
Histogram: 1 0 0 1 0 0 0 0 0 2
Neighs:         5182.5 ave        5478 max        5007 min
Histogram: 1 1 0 1 0 0 0 0 0 1

Total # of neighbors = 20730
Ave neighs/atom = 57.583333
Neighbor list builds = 895
Dangerous builds = 1
Total wall time: 0:00:03
     35000   0.90668493    -6.2008862      0             -4.8446366      8.6179148    
     37500   0.88378423    -6.1882981      0             -4.8663042      8.6235909    
Loop time of 3.14495 on 4 procs for 37500 steps with 360 atoms

Performance: 2060445.745 tau/day, 11923.876 timesteps/s, 4.293 Matom-step/s
99.4% CPU use with 4 MPI tasks x 1 OpenMP threads

MPI task timing breakdown:
Section |  min time  |  avg time  |  max time  |%varavg| %total
---------------------------------------------------------------
Pair    | 1.8861     | 1.9312     | 1.9568     |   2.0 | 61.41
Neigh   | 0.16149    | 0.16451    | 0.16621    |   0.5 |  5.23
Comm    | 0.87082    | 0.89475    | 0.94078    |   3.0 | 28.45
Output  | 0.021658   | 0.02527    | 0.03337    |   3.0 |  0.80
Modify  | 0.087671   | 0.091484   | 0.094634   |   0.9 |  2.91
Other   |            | 0.03772    |            |       |  1.20

Nlocal:             90 ave          93 max          88 min
Histogram: 1 0 1 0 1 0 0 0 0 1
Nghost:           1233 ave        1255 max        1206 min
Histogram: 1 0 0 0 0 1 1 0 0 1
Neighs:        5211.25 ave        5318 max        5104 min
Histogram: 1 0 1 0 0 0 0 1 0 1

Total # of neighbors = 20845
Ave neighs/atom = 57.902778
Neighbor list builds = 964
Dangerous builds = 0
Total wall time: 0:00:03
     35000   0.90668493    -6.2008862      0             -4.8446366      8.6179148    
     35000   0.90668493    -6.2008862      0             -4.8446366      8.6179148    
     35000   0.90668493    -6.2008862      0             -4.8446366      8.6179148    
     35000   0.90668493    -6.2008862      0             -4.8446366      8.6179148    
LAMMPS (15 Sep 2022)
OMP_NUM_THREADS environment is not set. Defaulting to 1 thread. (src/comm.cpp:98)
  using 1 OpenMP thread(s) per MPI task
Reading restart file ...
     35000   0.90668493    -6.2008862      0             -4.8446366      8.6179148    
     35000   0.74555749    -6.4228082      0             -5.3075785      7.0653295    
  restart file = 15 Sep 2022, LAMMPS = 15 Sep 2022
  restoring atom style atomic from restart
  orthogonal box = (0 0 0) to (6.6943295 6.6943295 6.6943295)
     30000   0.85233117    -6.1601948      0             -4.8852494      8.7341485    
LAMMPS (15 Sep 2022)
OMP_NUM_THREADS environment is not set. Defaulting to 1 thread. (src/comm.cpp:98)
  using 1 OpenMP thread(s) per MPI task
Reading restart file ...
[...]
   4500000   0.46200405    -7.0247349      0             -6.3336538      3.0748188    
   4500000   0.46200405    -7.0247349      0             -6.3336538      3.0748188    
   4500000   0.46200405    -7.0247349      0             -6.3336538      3.0748188    
   4800000   0.44972577    -7.0422741      0             -6.3695593      2.8802174    
   5700000   0.46299649    -6.9473272      0             -6.2547616      3.5386075    
   5700000   0.46299649    -6.9473272      0             -6.2547616      3.5386075    
   5400000   0.50422526    -6.9612332      0             -6.2069963      3.3753073    
   3600000   0.49718915    -6.9633408      0             -6.2196287      3.4014214    
   4800000   0.44972577    -7.0422741      0             -6.3695593      2.8802174    
   4800000   0.44972577    -7.0422741      0             -6.3695593      2.8802174    
   5100000   0.47768867    -6.978439       0             -6.2638963      3.2676204    
   4800000   0.44972577    -7.0422741      0             -6.3695593      2.8802174    
   4800000   0.44972577    -7.0422741      0             -6.3695593      2.8802174    
   4800000   0.44972577    -7.0422741      0             -6.3695593      2.8802174    
   6000000   0.49306607    -6.88717        0             -6.1496253      3.8575937    
   6000000   0.49306607    -6.88717        0             -6.1496253      3.8575937    
   5700000   0.46299649    -6.9473272      0             -6.2547616      3.5386075    
   3900000   0.5067197     -6.9496716      0             -6.1917034      3.6330768    
   5100000   0.47768867    -6.978439       0             -6.2638963      3.2676204    
   5100000   0.47768867    -6.978439       0             -6.2638963      3.2676204    
   6300000   0.5326525     -6.9455098      0             -6.1487504      3.4799684    
   6300000   0.5326525     -6.9455098      0             -6.1487504      3.4799684    
   5400000   0.50422526    -6.9612332      0             -6.2069963      3.3753073    
   5100000   0.47768867    -6.978439       0             -6.2638963      3.2676204    
   5100000   0.47768867    -6.978439       0             -6.2638963      3.2676204    
   5100000   0.47768867    -6.978439       0             -6.2638963      3.2676204    
   6000000   0.49306607    -6.88717        0             -6.1496253      3.8575937    
   6600000   0.48338566    -6.953585       0             -6.2305206      3.5624738    
   6600000   0.48338566    -6.953585       0             -6.2305206      3.5624738    
   5700000   0.46299649    -6.9473272      0             -6.2547616      3.5386075    
   5400000   0.50422526    -6.9612332      0             -6.2069963      3.3753073    
   5400000   0.50422526    -6.9612332      0             -6.2069963      3.3753073    
   5400000   0.50422526    -6.9612332      0             -6.2069963      3.3753073    
   5400000   0.50422526    -6.9612332      0             -6.2069963      3.3753073    
   4200000   0.46280583    -7.0108217      0             -6.3185413      3.1849915    
   5400000   0.50422526    -6.9612332      0             -6.2069963      3.3753073    
   6300000   0.5326525     -6.9455098      0             -6.1487504      3.4799684    
   6900000   0.46524608    -6.9780274      0             -6.2820968      3.3771117    
   6900000   0.46524608    -6.9780274      0             -6.2820968      3.3771117    
   6000000   0.49306607    -6.88717        0             -6.1496253      3.8575937    
   5700000   0.46299649    -6.9473272      0             -6.2547616      3.5386075    
   5700000   0.46299649    -6.9473272      0             -6.2547616      3.5386075    
   5700000   0.46299649    -6.9473272      0             -6.2547616      3.5386075    
   5700000   0.46299649    -6.9473272      0             -6.2547616      3.5386075    
   5700000   0.46299649    -6.9473272      0             -6.2547616      3.5386075    
   6600000   0.48338566    -6.953585       0             -6.2305206      3.5624738    
   4500000   0.46200405    -7.0247349      0             -6.3336538      3.0748188    
   7200000   0.5131243     -6.9304053      0             -6.1628569      3.7451892    
   7200000   0.5131243     -6.9304053      0             -6.1628569      3.7451892    
   6300000   0.5326525     -6.9455098      0             -6.1487504      3.4799684    
   6000000   0.49306607    -6.88717        0             -6.1496253      3.8575937    
   6000000   0.49306607    -6.88717        0             -6.1496253      3.8575937    
   6000000   0.49306607    -6.88717        0             -6.1496253      3.8575937    
   6000000   0.49306607    -6.88717        0             -6.1496253      3.8575937    
   6000000   0.49306607    -6.88717        0             -6.1496253      3.8575937    
   6900000   0.46524608    -6.9780274      0             -6.2820968      3.3771117    
   4800000   0.44972577    -7.0422741      0             -6.3695593      2.8802174    
   7500000   0.46631998    -6.9279535      0             -6.2304166      3.6004214    
Loop time of 602.805 on 4 procs for 7500000 steps with 360 atoms

Performance: 3224922.272 tau/day, 12441.830 timesteps/s, 4.479 Matom-step/s
99.5% CPU use with 4 MPI tasks x 1 OpenMP threads

MPI task timing breakdown:
Section |  min time  |  avg time  |  max time  |%varavg| %total
---------------------------------------------------------------
Pair    | 373.6      | 374.56     | 375.66     |   4.3 | 62.14
Neigh   | 31.561     | 31.772     | 31.887     |   2.2 |  5.27
Comm    | 167.55     | 169.18     | 170.32     |   8.8 | 28.07
Output  | 1.9059     | 2.5413     | 4.4433     |  68.9 |  0.42
Modify  | 17.127     | 17.462     | 17.809     |   6.0 |  2.90
Other   |            | 7.283      |            |       |  1.21

Nlocal:             90 ave          92 max          88 min
Histogram: 1 0 1 0 0 0 0 1 0 1
Nghost:        1255.25 ave        1279 max        1226 min
Histogram: 1 0 0 0 0 1 1 0 0 1
Neighs:        5197.25 ave        5315 max        5145 min
Histogram: 2 1 0 0 0 0 0 0 0 1

Total # of neighbors = 20789
Ave neighs/atom = 57.747222
Neighbor list builds = 192505
Dangerous builds = 260
   7500000   0.46631998    -6.9279535      0             -6.2304166      3.6004214    
Loop time of 602.805 on 4 procs for 7500000 steps with 360 atoms

Performance: 3224922.608 tau/day, 12441.831 timesteps/s, 4.479 Matom-step/s
99.6% CPU use with 4 MPI tasks x 1 OpenMP threads

MPI task timing breakdown:
Section |  min time  |  avg time  |  max time  |%varavg| %total
---------------------------------------------------------------
Pair    | 367.47     | 374.46     | 378.85     |  22.5 | 62.12
Neigh   | 31.457     | 31.764     | 31.934     |   3.2 |  5.27
Comm    | 166.5      | 170.52     | 176.71     |  29.9 | 28.29
Output  | 1.3705     | 1.5962     | 2.2702     |  30.8 |  0.26
Modify  | 16.918     | 17.51      | 18.497     |  14.4 |  2.90
Other   |            | 6.959      |            |       |  1.15

Nlocal:             90 ave          92 max          88 min
Histogram: 1 0 1 0 0 0 0 1 0 1
Nghost:        1255.25 ave        1279 max        1226 min
Histogram: 1 0 0 0 0 1 1 0 0 1
Neighs:        5197.25 ave        5315 max        5145 min
Histogram: 2 1 0 0 0 0 0 0 0 1

Total # of neighbors = 20789
Ave neighs/atom = 57.747222
Neighbor list builds = 192505
Dangerous builds = 260
Total wall time: 0:10:02
Total wall time: 0:10:02
   6600000   0.48338566    -6.953585       0             -6.2305206      3.5624738    
   6300000   0.5326525     -6.9455098      0             -6.1487504      3.4799684    
   6300000   0.5326525     -6.9455098      0             -6.1487504      3.4799684    
   7200000   0.5131243     -6.9304053      0             -6.1628569      3.7451892    
   6300000   0.5326525     -6.9455098      0             -6.1487504      3.4799684    
   6300000   0.5326525     -6.9455098      0             -6.1487504      3.4799684    
   6300000   0.5326525     -6.9455098      0             -6.1487504      3.4799684    
   5100000   0.47768867    -6.978439       0             -6.2638963      3.2676204    
   6900000   0.46524608    -6.9780274      0             -6.2820968      3.3771117    
   7500000   0.46631998    -6.9279535      0             -6.2304166      3.6004214    
Loop time of 627.178 on 4 procs for 7500000 steps with 360 atoms

Performance: 3099600.636 tau/day, 11958.336 timesteps/s, 4.305 Matom-step/s
99.6% CPU use with 4 MPI tasks x 1 OpenMP threads

MPI task timing breakdown:
Section |  min time  |  avg time  |  max time  |%varavg| %total
---------------------------------------------------------------
Pair    | 383.6      | 388.81     | 399.52     |  31.8 | 61.99
Neigh   | 32.715     | 32.913     | 33.042     |   2.2 |  5.25
Comm    | 169.03     | 179.53     | 184.43     |  45.7 | 28.62
Output  | 0.664      | 0.79786    | 1.1958     |  25.7 |  0.13
Modify  | 17.766     | 18.141     | 18.453     |   6.9 |  2.89
Other   |            | 6.988      |            |       |  1.11

Nlocal:             90 ave          92 max          88 min
Histogram: 1 0 1 0 0 0 0 1 0 1
Nghost:        1255.25 ave        1279 max        1226 min
Histogram: 1 0 0 0 0 1 1 0 0 1
Neighs:        5197.25 ave        5315 max        5145 min
Histogram: 2 1 0 0 0 0 0 0 0 1

Total # of neighbors = 20789
Ave neighs/atom = 57.747222
Neighbor list builds = 192505
Dangerous builds = 260
Total wall time: 0:10:27
   6600000   0.48338566    -6.953585       0             -6.2305206      3.5624738    
   6600000   0.48338566    -6.953585       0             -6.2305206      3.5624738    
   6600000   0.48338566    -6.953585       0             -6.2305206      3.5624738    
   6600000   0.48338566    -6.953585       0             -6.2305206      3.5624738    
   6600000   0.48338566    -6.953585       0             -6.2305206      3.5624738    
   5400000   0.50422526    -6.9612332      0             -6.2069963      3.3753073    
   7200000   0.5131243     -6.9304053      0             -6.1628569      3.7451892    
   6900000   0.46524608    -6.9780274      0             -6.2820968      3.3771117    
   6900000   0.46524608    -6.9780274      0             -6.2820968      3.3771117    
   6900000   0.46524608    -6.9780274      0             -6.2820968      3.3771117    
   6900000   0.46524608    -6.9780274      0             -6.2820968      3.3771117    
   6900000   0.46524608    -6.9780274      0             -6.2820968      3.3771117    
   7500000   0.46631998    -6.9279535      0             -6.2304166      3.6004214    
Loop time of 660.115 on 4 procs for 7500000 steps with 360 atoms

Performance: 2944942.251 tau/day, 11361.660 timesteps/s, 4.090 Matom-step/s
99.6% CPU use with 4 MPI tasks x 1 OpenMP threads

MPI task timing breakdown:
Section |  min time  |  avg time  |  max time  |%varavg| %total
---------------------------------------------------------------
Pair    | 368.24     | 372.96     | 375.44     |  14.4 | 56.50
Neigh   | 31.43      | 31.74      | 31.874     |   3.2 |  4.81
Comm    | 220.29     | 222.82     | 227.45     |  18.9 | 33.75
Output  | 1.8951     | 2.1463     | 2.8933     |  29.4 |  0.33
Modify  | 21.266     | 22.234     | 23.113     |  13.9 |  3.37
Other   |            | 8.218      |            |       |  1.24

Nlocal:             90 ave          92 max          88 min
Histogram: 1 0 1 0 0 0 0 1 0 1
Nghost:        1255.25 ave        1279 max        1226 min
Histogram: 1 0 0 0 0 1 1 0 0 1
Neighs:        5197.25 ave        5315 max        5145 min
Histogram: 2 1 0 0 0 0 0 0 0 1

Total # of neighbors = 20789
Ave neighs/atom = 57.747222
Neighbor list builds = 192505
Dangerous builds = 260
Total wall time: 0:11:00
   5700000   0.46299649    -6.9473272      0             -6.2547616      3.5386075    
   7200000   0.5131243     -6.9304053      0             -6.1628569      3.7451892    
   7200000   0.5131243     -6.9304053      0             -6.1628569      3.7451892    
   7200000   0.5131243     -6.9304053      0             -6.1628569      3.7451892    
   7200000   0.5131243     -6.9304053      0             -6.1628569      3.7451892    
   7200000   0.5131243     -6.9304053      0             -6.1628569      3.7451892    
   7500000   0.46631998    -6.9279535      0             -6.2304166      3.6004214    
Loop time of 683.044 on 4 procs for 7500000 steps with 360 atoms

Performance: 2846081.961 tau/day, 10980.254 timesteps/s, 3.953 Matom-step/s
99.6% CPU use with 4 MPI tasks x 1 OpenMP threads

MPI task timing breakdown:
Section |  min time  |  avg time  |  max time  |%varavg| %total
---------------------------------------------------------------
Pair    | 379.86     | 385.56     | 389.39     |  18.4 | 56.45
Neigh   | 32.513     | 32.726     | 32.916     |   2.5 |  4.79
Comm    | 228.04     | 232.06     | 237.91     |  24.7 | 33.97
Output  | 0.83254    | 0.89929    | 1.095      |  11.9 |  0.13
Modify  | 23.188     | 23.441     | 23.663     |   3.7 |  3.43
Other   |            | 8.358      |            |       |  1.22

Nlocal:             90 ave          92 max          88 min
Histogram: 1 0 1 0 0 0 0 1 0 1
Nghost:        1255.25 ave        1279 max        1226 min
Histogram: 1 0 0 0 0 1 1 0 0 1
Neighs:        5197.25 ave        5315 max        5145 min
Histogram: 2 1 0 0 0 0 0 0 0 1

Total # of neighbors = 20789
Ave neighs/atom = 57.747222
Neighbor list builds = 192505
Dangerous builds = 260
   7500000   0.46631998    -6.9279535      0             -6.2304166      3.6004214    
Loop time of 683.09 on 4 procs for 7500000 steps with 360 atoms

Performance: 2845889.765 tau/day, 10979.513 timesteps/s, 3.953 Matom-step/s
99.6% CPU use with 4 MPI tasks x 1 OpenMP threads

MPI task timing breakdown:
Section |  min time  |  avg time  |  max time  |%varavg| %total
---------------------------------------------------------------
Pair    | 381.69     | 385.71     | 388.01     |  12.2 | 56.47
Neigh   | 32.565     | 32.777     | 33.059     |   3.1 |  4.80
Comm    | 229.99     | 231.94     | 236.06     |  15.9 | 33.96
Output  | 0.7874     | 0.86348    | 1.0868     |  13.9 |  0.13
Modify  | 23.076     | 23.313     | 23.579     |   3.7 |  3.41
Other   |            | 8.484      |            |       |  1.24

Nlocal:             90 ave          92 max          88 min
Histogram: 1 0 1 0 0 0 0 1 0 1
Nghost:        1255.25 ave        1279 max        1226 min
Histogram: 1 0 0 0 0 1 1 0 0 1
Neighs:        5197.25 ave        5315 max        5145 min
Histogram: 2 1 0 0 0 0 0 0 0 1

Total # of neighbors = 20789
Ave neighs/atom = 57.747222
Neighbor list builds = 192505
Dangerous builds = 260
Total wall time: 0:11:23
Total wall time: 0:11:23
   7500000   0.46631998    -6.9279535      0             -6.2304166      3.6004214    
Loop time of 683.86 on 4 procs for 7500000 steps with 360 atoms

Performance: 2842686.752 tau/day, 10967.156 timesteps/s, 3.948 Matom-step/s
99.6% CPU use with 4 MPI tasks x 1 OpenMP threads

MPI task timing breakdown:
Section |  min time  |  avg time  |  max time  |%varavg| %total
---------------------------------------------------------------
Pair    | 381.77     | 385.67     | 387.97     |  11.9 | 56.40
Neigh   | 32.569     | 32.809     | 33.015     |   2.8 |  4.80
Comm    | 230.16     | 233.09     | 237.43     |  17.8 | 34.09
Output  | 0.30551    | 0.36319    | 0.53169    |  16.1 |  0.05
Modify  | 22.974     | 23.478     | 23.917     |   8.1 |  3.43
Other   |            | 8.448      |            |       |  1.24

Nlocal:             90 ave          92 max          88 min
Histogram: 1 0 1 0 0 0 0 1 0 1
Nghost:        1255.25 ave        1279 max        1226 min
Histogram: 1 0 0 0 0 1 1 0 0 1
Neighs:        5197.25 ave        5315 max        5145 min
Histogram: 2 1 0 0 0 0 0 0 0 1

Total # of neighbors = 20789
Ave neighs/atom = 57.747222
Neighbor list builds = 192505
Dangerous builds = 260
Total wall time: 0:11:24
   7500000   0.46631998    -6.9279535      0             -6.2304166      3.6004214    
Loop time of 685.668 on 4 procs for 7500000 steps with 360 atoms

Performance: 2835190.156 tau/day, 10938.234 timesteps/s, 3.938 Matom-step/s
99.6% CPU use with 4 MPI tasks x 1 OpenMP threads

MPI task timing breakdown:
Section |  min time  |  avg time  |  max time  |%varavg| %total
---------------------------------------------------------------
Pair    | 386.27     | 387.25     | 388.32     |   3.9 | 56.48
Neigh   | 32.674     | 32.813     | 32.947     |   2.0 |  4.79
Comm    | 232.68     | 233.13     | 234.26     |   4.3 | 34.00
Output  | 0.50109    | 0.55895    | 0.72765    |  13.0 |  0.08
Modify  | 22.766     | 23.494     | 24.495     |  13.0 |  3.43
Other   |            | 8.426      |            |       |  1.23

Nlocal:             90 ave          92 max          88 min
Histogram: 1 0 1 0 0 0 0 1 0 1
Nghost:        1255.25 ave        1279 max        1226 min
Histogram: 1 0 0 0 0 1 1 0 0 1
Neighs:        5197.25 ave        5315 max        5145 min
Histogram: 2 1 0 0 0 0 0 0 0 1

Total # of neighbors = 20789
Ave neighs/atom = 57.747222
Neighbor list builds = 192505
Dangerous builds = 260
Total wall time: 0:11:25
   6000000   0.49306607    -6.88717        0             -6.1496253      3.8575937    
   7500000   0.46631998    -6.9279535      0             -6.2304166      3.6004214    
Loop time of 686.317 on 4 procs for 7500000 steps with 360 atoms

Performance: 2832511.377 tau/day, 10927.899 timesteps/s, 3.934 Matom-step/s
99.6% CPU use with 4 MPI tasks x 1 OpenMP threads

MPI task timing breakdown:
Section |  min time  |  avg time  |  max time  |%varavg| %total
---------------------------------------------------------------
Pair    | 380.75     | 385.94     | 388.27     |  15.5 | 56.23
Neigh   | 32.527     | 32.791     | 33.16      |   4.0 |  4.78
Comm    | 231.82     | 234.8      | 240.44     |  21.7 | 34.21
Output  | 0.51523    | 0.57182    | 0.73667    |  12.6 |  0.08
Modify  | 23.403     | 23.763     | 24.064     |   6.1 |  3.46
Other   |            | 8.448      |            |       |  1.23

Nlocal:             90 ave          92 max          88 min
Histogram: 1 0 1 0 0 0 0 1 0 1
Nghost:        1255.25 ave        1279 max        1226 min
Histogram: 1 0 0 0 0 1 1 0 0 1
Neighs:        5197.25 ave        5315 max        5145 min
Histogram: 2 1 0 0 0 0 0 0 0 1

Total # of neighbors = 20789
Ave neighs/atom = 57.747222
Neighbor list builds = 192505
Dangerous builds = 260
Total wall time: 0:11:26
   6300000   0.5326525     -6.9455098      0             -6.1487504      3.4799684    
   6600000   0.48338566    -6.953585       0             -6.2305206      3.5624738    
   6900000   0.46524608    -6.9780274      0             -6.2820968      3.3771117    
   7200000   0.5131243     -6.9304053      0             -6.1628569      3.7451892    
   7500000   0.46631998    -6.9279535      0             -6.2304166      3.6004214    
Loop time of 789.407 on 4 procs for 7500000 steps with 360 atoms

Performance: 2462608.837 tau/day, 9500.806 timesteps/s, 3.420 Matom-step/s
99.6% CPU use with 4 MPI tasks x 1 OpenMP threads

MPI task timing breakdown:
Section |  min time  |  avg time  |  max time  |%varavg| %total
---------------------------------------------------------------
Pair    | 383.8      | 386.77     | 388.85     |  10.1 | 48.99
Neigh   | 32.528     | 32.795     | 32.902     |   2.7 |  4.15
Comm    | 318.34     | 328.61     | 340.39     |  55.2 | 41.63
Output  | 0.72395    | 0.7828     | 0.95552    |  11.3 |  0.10
Modify  | 18.92      | 32.433     | 45.507     | 210.6 |  4.11
Other   |            | 8.021      |            |       |  1.02

Nlocal:             90 ave          92 max          88 min
Histogram: 1 0 1 0 0 0 0 1 0 1
Nghost:        1255.25 ave        1279 max        1226 min
Histogram: 1 0 0 0 0 1 1 0 0 1
Neighs:        5197.25 ave        5315 max        5145 min
Histogram: 2 1 0 0 0 0 0 0 0 1

Total # of neighbors = 20789
Ave neighs/atom = 57.747222
Neighbor list builds = 192505
Dangerous builds = 260
Total wall time: 0:13:09
