LAMMPS (15 Sep 2022)
OMP_NUM_THREADS environment is not set. Defaulting to 1 thread. (src/comm.cpp:98)
  using 1 OpenMP thread(s) per MPI task
Lattice spacing in x,y,z = 1.4142136 1.4142136 1.4142136
Created orthogonal box = (0 0 -0.70710678) to (28.284271 28.284271 0.70710678)
  4 by 2 by 1 MPI processor grid
Created 400 atoms
  using lattice units in orthogonal box = (0 0 -0.70710678) to (28.284271 28.284271 0.70710678)
  create_atoms CPU = 0.000 seconds
Generated 0 of 0 mixed pair_coeff terms from geometric mixing rule
Neighbor list info ...
  update: every = 1 steps, delay = 0 steps, check = yes
  max neighbors/atom: 2000, page size: 100000
  master list distance cutoff = 1.3
  ghost atom cutoff = 1.3
  binsize = 0.65, bins = 44 44 3
  1 neighbor lists, perpetual/occasional/extra = 1 0 0
  (1) pair lj/cut, perpetual
      attributes: half, newton on
      pair build: half/bin/atomonly/newton
      stencil: half/bin/2d
      bin: standard
Setting up Verlet run ...
  Unit style    : lj
  Current step  : 0
  Time step     : 0.01
Per MPI rank memory allocation (min/avg/max) = 3.048 | 3.049 | 3.049 Mbytes
   Step          Temp          E_pair         E_mol          TotEng         Press     
         0   3              0              0              2.9925         1.49625      
       500   2.9896         0.18045469     0              3.1625807      3.2367391    
      1000   2.8749559      0.20734266     0              3.0751112      3.5085619    
      1500   2.9231239      0.24774582     0              3.1635619      3.7725781    
      2000   3.0186918      0.19622993     0              3.207375       3.4598898    
      2500   3.1731354      0.16306234     0              3.3282649      3.2872182    
      3000   3.250752       0.16292932     0              3.4055545      3.4003338    
      3500   3.191899       0.29374412     0              3.4776634      4.3064716    
      4000   3.3000111      0.20771709     0              3.4994782      3.5880207    
      4500   3.0655472      0.19901247     0              3.2568958      3.4842268    
      5000   3.0180234      0.24819786     0              3.2586762      3.8088308    
      5500   3.0606407      0.2035182      0              3.2565073      3.4548964    
      6000   3.019621       0.17607049     0              3.1881425      3.3460474    
      6500   2.8020089      0.28579032     0              3.0807942      4.0357209    
      7000   2.7931427      0.17396915     0              2.960129       3.0924329    
      7500   2.9316621      0.17789112     0              3.1022241      3.3332783    
      8000   3.0651023      0.20164225     0              3.2590818      3.5731317    
      8500   3.04576        0.21705708     0              3.2552027      3.6678943    
      9000   3.2199474      0.21508056     0              3.4269781      3.6961392    
      9500   3.0460429      0.21498263     0              3.2534104      3.673743     
     10000   3.1348748      0.20524118     0              3.3322788      3.5277129    
     10500   3.0784995      0.26927053     0              3.3400738      3.9780239    
     11000   3.2500498      0.25262486     0              3.4945495      3.8820524    
     11500   2.9684033      0.26775689     0              3.2287392      3.9416267    
     12000   2.9606887      0.27951005     0              3.232797       4.1302934    
     12500   3.005284       0.2203275      0              3.2180983      3.5672218    
     13000   2.9687828      0.24971115     0              3.211072       3.7291275    
     13500   2.9403637      0.26005326     0              3.1930661      3.7481376    
     14000   2.927786       0.27131751     0              3.191784       3.9250442    
     14500   2.8553705      0.25160959     0              3.0998416      3.7997845    
     15000   2.7868582      0.17047547     0              2.9503665      3.0995801    
     15500   2.9826548      0.20463351     0              3.1798317      3.4769326    
     16000   2.8366673      0.20034659     0              3.0299222      3.5352231    
     16500   2.8700047      0.21578823     0              3.0786179      3.4461834    
     17000   2.7323804      0.18720379     0              2.9127532      3.2046841    
     17500   3.1097723      0.16202596     0              3.2640238      3.2557878    
     18000   3.0632699      0.28503168     0              3.3406434      4.2451029    
     18500   3.1480986      0.14152702     0              3.2817554      3.0673964    
     19000   3.2224341      0.17671572     0              3.3910937      3.465952     
     19500   3.122098       0.29549833     0              3.4097911      4.4054708    
     20000   3.1660823      0.27888577     0              3.4370529      4.1311887    
     20500   2.8786         0.164556       0              3.0359595      3.1869201    
     21000   2.9660582      0.19004256     0              3.1486856      3.2447544    
     21500   2.7671306      0.19813055     0              2.9583433      3.4332992    
     22000   2.9412563      0.18819467     0              3.1220978      3.4100583    
     22500   2.8974038      0.23545963     0              3.1256199      3.5605482    
     23000   3.0529363      0.25363518     0              3.2989392      3.8970578    
     23500   3.2606504      0.25160008     0              3.5040989      4.1084289    
     24000   3.2929813      0.20426987     0              3.4890187      3.8184058    
     24500   2.8427698      0.22276157     0              3.0584245      3.5600518    
     25000   3.0125967      0.20766137     0              3.2127266      3.508665     
     25500   2.9438465      0.22898923     0              3.1654762      3.5447803    
     26000   2.8761847      0.22341324     0              3.0924075      3.5603169    
     26500   2.8619869      0.21963163     0              3.0744635      3.5170614    
     27000   2.7774342      0.14556954     0              2.9160601      2.9625435    
     27500   3.0502576      0.12651041     0              3.1691424      2.961171     
     28000   3.0919887      0.18780602     0              3.2720647      3.3844328    
     28500   3.2607225      0.17917357     0              3.4317442      3.5001062    
     29000   3.1074177      0.25828416     0              3.3579334      4.0054638    
     29500   3.1695837      0.22358872     0              3.3852485      3.7292981    
     30000   3.1352739      0.1974551      0              3.3248908      3.4041922    
     30500   3.2430074      0.19430725     0              3.4292071      3.5029841    
     31000   3.2311334      0.27313546     0              3.4961911      4.1118987    
     31500   3.1080182      0.22483258     0              3.3250807      3.8437521    
     32000   2.8898879      0.33973393     0              3.2223971      4.3130461    
     32500   2.9366371      0.16077666     0              3.0900722      3.2309702    
     33000   2.7567098      0.26323771     0              3.0130558      3.8425951    
     33500   2.8873712      0.13222331     0              3.0123761      2.9748893    
     34000   2.7148501      0.24993563     0              2.9579986      3.5537099    
     34500   2.9354867      0.20301321     0              3.1311612      3.507124     
     35000   2.8660184      0.17139818     0              3.0302515      3.2055869    
     35500   2.8129562      0.26996957     0              3.0758933      3.767493     
     36000   2.7342107      0.26035749     0              2.9877326      3.7070957    
     36500   3.2211126      0.16596494     0              3.3790247      3.3707352    
     37000   3.094454       0.26180018     0              3.3485181      3.9282679    
     37500   3.1915352      0.19481507     0              3.3783715      3.570055     
     38000   3.1077016      0.22762679     0              3.3275591      3.7821675    
     38500   3.1864951      0.22013885     0              3.3986677      3.5645768    
     39000   3.4125172      0.16607591     0              3.5700619      3.4384755    
     39500   3.0223442      0.13558223     0              3.1503705      2.9287879    
     40000   2.9849774      0.16886399     0              3.1463789      3.275651     
     40500   3.0062945      0.1603529      0              3.1591316      3.1653115    
     41000   2.9390192      0.15979807     0              3.0914697      3.0274561    
     41500   2.8698854      0.17214972     0              3.0348604      3.0709542    
     42000   2.8524478      0.20094006     0              3.0462567      3.546752     
     42500   2.8279841      0.14691781     0              2.9678319      2.9164566    
     43000   2.9424349      0.23376455     0              3.1688434      3.6952346    
     43500   2.9828606      0.22447675     0              3.1998802      3.5301671    
     44000   3.1624842      0.16250293     0              3.3170809      3.3060761    
     44500   3.0801145      0.21898583     0              3.2914001      3.6622379    
     45000   3.2122917      0.27748689     0              3.4817478      4.1365431    
     45500   2.9784825      0.25554289     0              3.2265792      4.0485053    
     46000   2.9901889      0.18470313     0              3.1674165      3.3906133    
     46500   2.8717504      0.22620976     0              3.0907808      3.5686732    
     47000   2.8344772      0.19913673     0              3.0265278      3.2265827    
     47500   2.5247864      0.22893644     0              2.7474109      3.3675024    
     48000   2.8563839      0.17442838     0              3.0236714      3.304889     
     48500   2.9468311      0.18124021     0              3.1207042      3.2339822    
     49000   2.667165       0.19820379     0              2.8587009      3.3939605    
     49500   2.9798787      0.16018716     0              3.1326162      3.1651374    
     50000   3.023937       0.23866819     0              3.2550453      3.6333191    
Loop time of 0.878191 on 8 procs for 50000 steps with 400 atoms

Performance: 49192042.669 tau/day, 56935.235 timesteps/s, 22.774 Matom-step/s
99.1% CPU use with 8 MPI tasks x 1 OpenMP threads

MPI task timing breakdown:
Section |  min time  |  avg time  |  max time  |%varavg| %total
---------------------------------------------------------------
Pair    | 0.03397    | 0.035229   | 0.039258   |   0.8 |  4.01
Neigh   | 0.083398   | 0.084675   | 0.086891   |   0.4 |  9.64
Comm    | 0.47899    | 0.48503    | 0.49428    |   0.8 | 55.23
Output  | 0.0012219  | 0.0016855  | 0.0048758  |   2.9 |  0.19
Modify  | 0.13737    | 0.15296    | 0.16365    |   2.7 | 17.42
Other   |            | 0.1186     |            |       | 13.51

Nlocal:             50 ave          55 max          47 min
Histogram: 2 1 1 1 0 1 0 1 0 1
Nghost:           29.5 ave          33 max          25 min
Histogram: 1 0 1 1 0 1 1 1 0 2
Neighs:         47.125 ave          57 max          34 min
Histogram: 1 0 0 2 1 0 1 0 1 2

Total # of neighbors = 377
Ave neighs/atom = 0.9425
Neighbor list builds = 16919
Dangerous builds = 0
Generated 0 of 0 mixed pair_coeff terms from geometric mixing rule
Setting up Verlet run ...
  Unit style    : lj
  Current step  : 50000
  Time step     : 0.01
Per MPI rank memory allocation (min/avg/max) = 3.072 | 3.072 | 3.073 Mbytes
   Step          Temp          E_pair         E_mol          TotEng         Press     
     50000   3.023937       0.23866819     0              3.2550453      3.6333191    
     50500   3.0696419      0.27077429     0              3.3327421      4.0852362    
     51000   3.1144405      0.19833879     0              3.3049932      3.5386128    
     51500   2.9903193      0.24919372     0              3.2320372      3.8166581    
     52000   2.6956031      0.14818557     0              2.8370496      3.0291707    
     52500   2.6991607      0.1330624      0              2.8254752      2.7259166    
     53000   2.8105778      0.18495369     0              2.988505       3.4322983    
     53500   2.8226134      0.18026759     0              2.9958244      3.2537712    
     54000   2.7833584      0.23777705     0              3.014177       3.6630582    
     54500   2.8717949      0.2508332      0              3.1154486      3.7076484    
     55000   2.9903467      0.15372836     0              3.1365992      3.1699365    
     55500   2.89785        0.15990606     0              3.0505114      3.1808926    
     56000   3.0042292      0.18871405     0              3.1854326      3.4390092    
     56500   2.9580823      0.25258364     0              3.2032707      3.9204454    
     57000   2.8641932      0.26235846     0              3.1193912      3.7095012    
     57500   2.7911942      0.22426205     0              3.0084783      3.5576993    
     58000   2.741195       0.14797679     0              2.8823188      2.8603174    
     58500   2.5418897      0.1645001      0              2.700035       2.9732855    
     59000   2.5728334      0.16921723     0              2.7356186      3.08529      
     59500   2.57014        0.23071569     0              2.7944303      3.417749     
     60000   2.6095604      0.17839718     0              2.7814337      3.1374952    
     60500   2.5470991      0.18159193     0              2.7223233      3.1228791    
     61000   2.4536911      0.10094753     0              2.5485044      2.3796112    
     61500   2.534366       0.21715913     0              2.7451892      3.2662225    
     62000   2.6696846      0.18592925     0              2.8489396      3.3569707    
     62500   2.7179673      0.20509227     0              2.9162647      3.2967992    
     63000   2.6125886      0.21639169     0              2.8224488      3.4458147    
     63500   2.8379498      0.14125191     0              2.9721069      2.8581283    
     64000   2.6301105      0.16219762     0              2.7857328      2.9992487    
     64500   2.7206504      0.24768257     0              2.9615313      3.6544233    
     65000   2.6603346      0.23752789     0              2.8912117      3.583479     
     65500   2.5461748      0.19565546     0              2.7354649      3.2018       
     66000   2.4796874      0.12426741     0              2.5977556      2.6554062    
     66500   2.4792261      0.18549272     0              2.6585207      3.2294903    
     67000   2.3298321      0.14247051     0              2.4664781      2.6765685    
     67500   2.4114685      0.1767949      0              2.5822347      2.9735227    
     68000   2.5008748      0.11722547     0              2.6118481      2.5372095    
     68500   2.470847       0.20356438     0              2.6682342      3.3277216    
     69000   2.4824516      0.14788881     0              2.6241343      2.735962     
     69500   2.4917149      0.15364479     0              2.6391304      2.865535     
     70000   2.4627229      0.17351564     0              2.6300817      3.0087437    
     70500   2.5026346      0.14977473     0              2.6461527      2.6614433    
     71000   2.5950372      0.17102764     0              2.7595773      3.1021481    
     71500   2.6422799      0.20233916     0              2.8380133      3.3566417    
     72000   2.3695073      0.20054699     0              2.5641305      3.2264527    
     72500   2.3394813      0.14617651     0              2.4798091      2.7992294    
     73000   2.2509183      0.20035639     0              2.4456474      3.0605746    
     73500   2.272265       0.15075105     0              2.4173354      2.656557     
     74000   2.1975839      0.1326548      0              2.3247448      2.5599495    
     74500   2.228462       0.19539302     0              2.4182839      3.0403655    
     75000   2.1554812      0.12917789     0              2.2792703      2.4148045    
     75500   2.2505494      0.14219446     0              2.3871175      2.6154495    
     76000   2.275349       0.13191848     0              2.4015791      2.5613202    
     76500   2.2979365      0.14321405     0              2.4354057      2.782785     
     77000   2.4563147      0.15438755     0              2.6045614      2.9227973    
     77500   2.3429354      0.12965337     0              2.4667314      2.5371224    
     78000   2.2059359      0.13432368     0              2.3347447      2.5900783    
     78500   2.1544361      0.12588426     0              2.2749343      2.5096625    
     79000   1.9939025      0.14628512     0              2.1352028      2.5016029    
     79500   1.9211551      0.11100986     0              2.0273621      2.3843575    
     80000   1.9640619      0.17986139     0              2.1390131      2.9718137    
     80500   2.0541805      0.15472306     0              2.2037681      2.6307136    
     81000   2.0944325      0.11179236     0              2.2009888      2.2794445    
     81500   2.1131636      0.156152       0              2.2640327      2.7385487    
     82000   2.1205968      0.17918557     0              2.2944809      2.8004981    
     82500   2.1606935      0.098785664    0              2.2540774      2.2767421    
     83000   2.0230345      0.1762536      0              2.1942305      2.7994299    
     83500   1.9258105      0.11863445     0              2.0396304      2.2710119    
     84000   1.8964806      0.069568387    0              1.9613078      1.819587     
     84500   1.8881877      0.12349476     0              2.006962       2.3581236    
     85000   1.914912       0.13786873     0              2.0479934      2.4365793    
     85500   1.8285566      0.10269369     0              1.9266789      2.0900229    
     86000   1.9764731      0.14422048     0              2.1157524      2.4626184    
     86500   2.0120972      0.13275013     0              2.1398171      2.4132473    
     87000   2.0548879      0.089335797    0              2.1390864      2.0792086    
     87500   1.9369865      0.16428339     0              2.0964274      2.7048876    
     88000   1.7926915      0.1121047      0              1.9003145      2.2057689    
     88500   1.6708626      0.13451632     0              1.8012017      2.4193345    
     89000   1.7602222      0.12959369     0              1.8854153      2.3031361    
     89500   1.8214564      0.13593788     0              1.9528406      2.4690965    
     90000   1.9209463      0.0983579      0              2.0145019      2.2265253    
     90500   1.9717498      0.14551706     0              2.1123375      2.4660914    
     91000   1.8655723      0.10476922     0              1.9656775      2.2274262    
     91500   1.8064187      0.10661675     0              1.9085194      2.1378861    
     92000   1.7997375      0.080624502    0              1.8758626      1.8277067    
     92500   1.7405006      0.1148112      0              1.8509605      2.1680225    
     93000   1.7613545      0.069715011    0              1.8266661      1.8524783    
     93500   1.5899534      0.14956372     0              1.7355422      2.4623657    
     94000   1.741614       0.073122758    0              1.8103827      1.8610989    
     94500   1.7067786      0.094344372    0              1.796856       1.9603107    
     95000   1.6476224      0.11798817     0              1.7614915      2.1458829    
     95500   1.659183       0.077960563    0              1.7329956      1.8352188    
     96000   1.5420104      0.14389453     0              1.6820499      2.3142826    
     96500   1.7178811      0.054135606    0              1.767722       1.5156176    
     97000   1.6881963      0.091187124    0              1.7751629      1.9910828    
     97500   1.712375       0.093925504    0              1.8020196      1.9460618    
     98000   1.6804953      0.16203052     0              1.8383246      2.4526135    
     98500   1.7097433      0.10529347     0              1.8107624      2.091277     
     99000   1.5819903      0.11211413     0              1.6901495      2.0814024    
     99500   1.5228364      0.096909753    0              1.615939       1.8831802    
    100000   1.4063765      0.10317826     0              1.5060388      2.0258406    
    100500   1.44821        0.097013039    0              1.5416025      1.8685411    
    101000   1.5735186      0.1054627      0              1.6750475      1.9877997    
    101500   1.5608277      0.12803353     0              1.6849591      2.1419223    
    102000   1.5350452      0.057409944    0              1.5886175      1.5925717    
    102500   1.3925972      0.089249757    0              1.4783655      1.8763198    
    103000   1.3229537      0.07211257     0              1.3917589      1.6513321    
    103500   1.3202677      0.10423698     0              1.421204       1.7881173    
    104000   1.398811       0.055477472    0              1.4507915      1.4281212    
    104500   1.3775572      0.064096272    0              1.4382095      1.5326008    
    105000   1.3587693      0.069925779    0              1.4252982      1.6071255    
    105500   1.319868       0.069075977    0              1.3856443      1.5898649    
    106000   1.2961999      0.10894158     0              1.401901       1.933375     
    106500   1.2721717      0.07576846     0              1.3447598      1.5543927    
    107000   1.3243721      0.06396318     0              1.3850244      1.546226     
    107500   1.2806535      0.055753021    0              1.3332049      1.4301097    
    108000   1.4057622      0.060788971    0              1.4630368      1.5026008    
    108500   1.3497329      0.10237285     0              1.4487314      1.9244635    
    109000   1.3701253      0.075384229    0              1.4420842      1.6730328    
    109500   1.2209003      0.12174347     0              1.3395915      2.1117995    
    110000   1.2578544      0.051609539    0              1.3063193      1.370189     
    110500   1.1684332      0.041239319    0              1.2067514      1.2492636    
    111000   1.1569411      0.073809661    0              1.2278584      1.5373893    
    111500   1.1538172      0.081593519    0              1.2325262      1.6167162    
    112000   1.1789595      0.068298904    0              1.244311       1.4140874    
    112500   1.1806544      0.075478194    0              1.253181       1.5013981    
    113000   1.1909984      0.064961865    0              1.2529828      1.5249815    
    113500   1.1982054      0.058598461    0              1.2538084      1.4485567    
    114000   1.1546857      0.074323282    0              1.2261223      1.5825633    
    114500   1.195592       0.07864208     0              1.2712451      1.6253447    
    115000   1.1262739      0.052940711    0              1.1763989      1.3194609    
    115500   1.1006277      0.057683774    0              1.1555599      1.2661752    
    116000   1.0608397      0.053891894    0              1.1120795      1.233731     
    116500   1.028736       0.044488323    0              1.0706525      1.2575023    
    117000   1.014613       0.036673461    0              1.04875        1.0700124    
    117500   0.93704932     0.047309518    0              0.98201621     1.1415143    
    118000   1.0208072      0.092126992    0              1.1103822      1.6107744    
    118500   1.0584458      0.042037693    0              1.0978374      1.2211732    
    119000   1.0532716      0.061220704    0              1.1118591      1.3428661    
    119500   0.98059758     0.052844643    0              1.0309907      1.3367404    
    120000   0.9401588      0.04924916     0              0.98705757     1.2405358    
    120500   0.87633735     0.029664886    0              0.9038114      0.94868352   
    121000   0.89159693     0.047017514    0              0.93638545     1.1570536    
    121500   0.89237825     0.048725699    0              0.938873       1.0954346    
    122000   0.90995869     0.042638232    0              0.95032203     1.1278863    
    122500   0.89332266     0.051010337    0              0.94209969     1.232878     
    123000   0.89363439     0.061787074    0              0.95318738     1.1781632    
    123500   0.95350082     0.048732929    0              0.99984999     1.2636644    
    124000   0.89611535     0.057749748    0              0.95162481     1.266165     
    124500   0.87179977     0.027793853    0              0.89741413     0.88679424   
    125000   0.80312642     0.030531967    0              0.83165057     0.89248062   
    125500   0.75462813     0.052327254    0              0.80506881     1.1219135    
    126000   0.72753463     0.030445704    0              0.7561615      0.83133057   
    126500   0.77458075     0.031714278    0              0.80435858     0.94563066   
    127000   0.78405996     0.029819994    0              0.8119198      0.88565551   
    127500   0.80240348     0.050233609    0              0.85063108     1.1071699    
    128000   0.73635952     0.048238834    0              0.78275745     1.1511924    
    128500   0.73482831     0.035459584    0              0.76845083     0.93213438   
    129000   0.67294176     0.025728426    0              0.69698783     0.78899492   
    129500   0.67340127     0.038083069    0              0.70980084     0.91655917   
    130000   0.66941156     0.020788669    0              0.6885267      0.77643086   
    130500   0.63704884     0.027934223    0              0.66339044     0.74952888   
    131000   0.64496542     0.014197359    0              0.65755036     0.61396791   
    131500   0.60428818     0.028020096    0              0.63079755     0.79941462   
    132000   0.65386715     0.024304757    0              0.67653724     0.78120456   
    132500   0.63529148     0.024024584    0              0.65772783     0.72260295   
    133000   0.6213967      0.025092038    0              0.64493525     0.71260923   
    133500   0.58924203     0.039477238    0              0.62724616     0.9304236    
    134000   0.59963896     0.027883502    0              0.62602337     0.76235433   
    134500   0.54405375     0.029087705    0              0.57178132     0.82318007   
    135000   0.53926459     0.01941854     0              0.55733497     0.65814659   
    135500   0.51335255     0.029285276    0              0.54135445     0.74322226   
    136000   0.49048713     0.027383664    0              0.51664458     0.67942771   
    136500   0.47741073     0.014945058    0              0.49116226     0.54423001   
    137000   0.45826381     0.011348979    0              0.46846713     0.48412201   
    137500   0.45390018     0.024300747    0              0.47706617     0.68125453   
    138000   0.45667251     0.020745276    0              0.47627611     0.62729995   
    138500   0.43013015     0.014030327    0              0.44308515     0.52993464   
    139000   0.39303451     0.011312487    0              0.40336442     0.47746618   
    139500   0.39976484     0.012085664    0              0.4108511      0.48140871   
    140000   0.3858687      0.010689267    0              0.39559329     0.45310242   
    140500   0.38450908     0.019003554    0              0.40255136     0.54872928   
    141000   0.3647038      0.011722678    0              0.37551472     0.45711345   
    141500   0.34911686     0.015071946    0              0.36331601     0.50484476   
    142000   0.30796938     0.0081726687   0              0.31537213     0.3574114    
    142500   0.30337454     0.020238458    0              0.32285456     0.52335868   
    143000   0.29113922     0.016567995    0              0.30697937     0.48384433   
    143500   0.31114823     0.012979278    0              0.32334964     0.4578483    
    144000   0.28502047     0.010772239    0              0.29508015     0.40453781   
    144500   0.27263323     0.010723556    0              0.2826752      0.39483867   
    145000   0.23066418     0.01010976     0              0.24019728     0.34815024   
    145500   0.22462863     0.011245782    0              0.23531284     0.35927295   
    146000   0.20571347     0.0056231102   0              0.2108223      0.26922776   
    146500   0.19738445     0.0072149769   0              0.20410597     0.29394101   
    147000   0.19798735     0.0022716025   0              0.19976398     0.17783358   
    147500   0.18080277     0.0050417905   0              0.18539255     0.25513262   
    148000   0.14191396     0.0042952529   0              0.14585443     0.20729787   
    148500   0.14301592     0.0014917382   0              0.14415012     0.13833625   
    149000   0.11080663     0.0034574984   0              0.11398711     0.15426486   
    149500   0.11079423     0.0022852513   0              0.11280249     0.13085808   
    150000   0.099062346    0.001558595    0              0.10037328     0.1219634    
Loop time of 1.62829 on 8 procs for 100000 steps with 400 atoms

Performance: 53061915.209 tau/day, 61414.254 timesteps/s, 24.566 Matom-step/s
99.4% CPU use with 8 MPI tasks x 1 OpenMP threads

MPI task timing breakdown:
Section |  min time  |  avg time  |  max time  |%varavg| %total
---------------------------------------------------------------
Pair    | 0.059769   | 0.061923   | 0.06949    |   1.2 |  3.80
Neigh   | 0.12175    | 0.12349    | 0.12846    |   0.6 |  7.58
Comm    | 0.88671    | 0.9016     | 0.92019    |   1.4 | 55.37
Output  | 0.017059   | 0.017161   | 0.017754   |   0.2 |  1.05
Modify  | 0.27334    | 0.30046    | 0.32434    |   4.1 | 18.45
Other   |            | 0.2237     |            |       | 13.74

Nlocal:             50 ave          54 max          46 min
Histogram: 1 0 1 1 0 2 1 1 0 1
Nghost:         29.625 ave          32 max          26 min
Histogram: 1 0 0 1 0 2 1 0 1 2
Neighs:         48.625 ave          58 max          40 min
Histogram: 1 1 1 1 0 1 1 0 1 1

Total # of neighbors = 389
Ave neighs/atom = 0.9725
Neighbor list builds = 24810
Dangerous builds = 0
Total wall time: 0:00:02
LAMMPS (15 Sep 2022)
OMP_NUM_THREADS environment is not set. Defaulting to 1 thread. (src/comm.cpp:98)
  using 1 OpenMP thread(s) per MPI task
Lattice spacing in x,y,z = 1.2909944 1.2909944 1.2909944
Created orthogonal box = (0 0 -0.64549722) to (25.819889 25.819889 0.64549722)
  4 by 2 by 1 MPI processor grid
Created 400 atoms
  using lattice units in orthogonal box = (0 0 -0.64549722) to (25.819889 25.819889 0.64549722)
  create_atoms CPU = 0.000 seconds
Generated 0 of 0 mixed pair_coeff terms from geometric mixing rule
Neighbor list info ...
  update: every = 1 steps, delay = 0 steps, check = yes
  max neighbors/atom: 2000, page size: 100000
  master list distance cutoff = 1.3
  ghost atom cutoff = 1.3
  binsize = 0.65, bins = 40 40 2
  1 neighbor lists, perpetual/occasional/extra = 1 0 0
  (1) pair lj/cut, perpetual
      attributes: half, newton on
      pair build: half/bin/atomonly/newton
      stencil: half/bin/2d
      bin: standard
Setting up Verlet run ...
  Unit style    : lj
  Current step  : 0
  Time step     : 0.01
Per MPI rank memory allocation (min/avg/max) = 3.049 | 3.049 | 3.049 Mbytes
   Step          Temp          E_pair         E_mol          TotEng         Press     
         0   3              0              0              2.9925         1.7955       
       500   2.7884286      0.34369107     0              3.1251486      5.5100672    
      1000   2.9091417      0.32888019     0              3.230749       5.3217187    
      1500   2.9154488      0.37965534     0              3.2878156      5.7715029    
      2000   2.8746937      0.40932076     0              3.2768277      6.130943     
      2500   2.8420257      0.39136135     0              3.226282       5.9989979    
      3000   2.8627902      0.29671364     0              3.1523468      5.0830737    
      3500   2.8804589      0.34339391     0              3.2166516      5.5396011    
      4000   2.8262208      0.24725747     0              3.0664128      4.8159287    
      4500   2.9309783      0.32317078     0              3.2468217      5.5607568    
      5000   2.963334       0.21602609     0              3.1719517      4.5977689    
      5500   2.9831002      0.29874172     0              3.2743841      5.384629     
      6000   3.1411005      0.2396138      0              3.3728616      4.9334147    
      6500   3.0646745      0.25466283     0              3.3116757      5.0915814    
      7000   3.0866605      0.28932352     0              3.3682673      5.0712983    
      7500   2.9283814      0.23406126     0              3.1551217      4.6249956    
      8000   2.9851083      0.23208612     0              3.2097317      4.583422     
      8500   2.865086       0.2483975      0              3.1063208      4.6507759    
      9000   2.9645604      0.30105159     0              3.2582006      5.3834511    
      9500   2.8958765      0.25188778     0              3.1405246      4.8325441    
     10000   2.9315678      0.31689141     0              3.2411302      5.3742534    
     10500   2.85021        0.35921161     0              3.2022961      5.9210329    
     11000   2.8407629      0.47827862     0              3.3119396      6.6994069    
     11500   3.2537961      0.26828606     0              3.5139476      5.1906906    
     12000   2.9386085      0.43629674     0              3.3675587      6.3455095    
     12500   3.1571712      0.27718728     0              3.4264655      5.1714923    
     13000   3.0483984      0.39153938     0              3.4323167      5.8874216    
     13500   3.0070021      0.33391917     0              3.3334037      5.4793143    
     14000   3.1000662      0.38028579     0              3.4726019      6.3840569    
     14500   3.0777503      0.30080872     0              3.3708646      5.3625904    
     15000   3.0372359      0.36722394     0              3.3968667      6.0296555    
     15500   2.9793776      0.35635337     0              3.3282826      5.3972958    
     16000   3.105697       0.31472717     0              3.4126599      5.361302     
     16500   3.3817801      0.36066004     0              3.7339857      6.002065     
     17000   3.2126434      0.36651864     0              3.5711304      6.301605     
     17500   3.0902453      0.26255145     0              3.3450711      5.0733864    
     18000   2.8189118      0.31990315     0              3.1317677      5.5407837    
     18500   2.8074186      0.29844084     0              3.0988409      5.1558739    
     19000   2.7673366      0.27725785     0              3.0376761      4.8727594    
     19500   3.0975882      0.22265532     0              3.3124995      4.652496     
     20000   3.1490076      0.2408837      0              3.3820188      4.8668451    
     20500   3.1244363      0.33433522     0              3.4509604      5.6724069    
     21000   3.4172821      0.32075981     0              3.7294988      5.8043794    
     21500   3.1446526      0.42952187     0              3.5663129      6.4542051    
     22000   3.0775027      0.24503713     0              3.314846       4.9488655    
     22500   3.107653       0.34995591     0              3.4498398      5.7941589    
     23000   3.1931542      0.34600522     0              3.5311765      5.7251555    
     23500   3.3556565      0.37127045     0              3.7185378      6.3268727    
     24000   3.1186635      0.32668834     0              3.4375552      5.6657617    
     24500   3.1008942      0.20820071     0              3.3013426      4.6866304    
     25000   2.9240011      0.35614137     0              3.2728325      5.4694866    
     25500   2.7526378      0.35872255     0              3.1044788      5.5519481    
     26000   2.9397247      0.25442823     0              3.1868036      4.8380228    
     26500   2.7686766      0.32308449     0              3.0848394      5.2109477    
     27000   2.9191967      0.28876408     0              3.2006628      5.2102394    
     27500   2.8234025      0.31557678     0              3.1319208      5.2283242    
     28000   3.1172926      0.23209577     0              3.3415951      4.8014305    
     28500   3.0996637      0.40806577     0              3.4999803      6.2854951    
     29000   3.2596734      0.23785846     0              3.4893826      4.8350612    
     29500   3.0268545      0.37454713     0              3.3938345      6.0559589    
     30000   3.0807753      0.27323978     0              3.3463132      5.1290367    
     30500   3.1980579      0.30524947     0              3.4953122      5.4304393    
     31000   3.0592354      0.28329989     0              3.3348872      5.2331671    
     31500   3.1210904      0.30235519     0              3.4156428      5.2993019    
     32000   3.0774095      0.32159437     0              3.3913103      5.7277682    
     32500   3.1032235      0.45215232     0              3.5476177      6.4223077    
     33000   2.9574602      0.32476204     0              3.2748286      5.5222544    
     33500   2.9243706      0.33782799     0              3.2548876      5.5313942    
     34000   2.9781383      0.24226922     0              3.2129622      4.7540577    
     34500   3.0230158      0.27611889     0              3.2915771      4.9745147    
     35000   2.8772795      0.2864689      0              3.1565552      5.0528079    
     35500   2.9256227      0.36739867     0              3.2857073      5.7363081    
     36000   2.8797082      0.35648801     0              3.2289969      5.5953286    
     36500   2.8111998      0.2703043      0              3.0744761      4.8505452    
     37000   2.6251339      0.23808137     0              2.8566524      4.4869877    
     37500   2.9090365      0.24793408     0              3.149698       4.8456711    
     38000   2.9070127      0.33557239     0              3.2353175      5.5480497    
     38500   2.9532894      0.31873617     0              3.2646424      5.2545118    
     39000   2.8128972      0.29283971     0              3.0987047      5.1413739    
     39500   2.9132542      0.37688584     0              3.2828569      5.8577344    
     40000   2.8673703      0.28253192     0              3.1427338      5.1993224    
     40500   2.9839497      0.30814706     0              3.2846369      5.4015176    
     41000   3.1644402      0.26179185     0              3.418321       5.1002286    
     41500   3.316199       0.44883805     0              3.7567466      6.8535218    
     42000   3.2345462      0.32431448     0              3.5507743      5.5349323    
     42500   3.1048666      0.26441744     0              3.3615219      4.9189659    
     43000   2.9181854      0.38849235     0              3.2993823      6.101733     
     43500   3.0423305      0.26782183     0              3.3025465      5.1185022    
     44000   2.9521071      0.30686323     0              3.25159        5.2912699    
     44500   2.9465608      0.31860034     0              3.2577947      5.3703192    
     45000   2.8153035      0.20976271     0              3.018028       4.3883685    
     45500   2.7671017      0.27343433     0              3.0336183      4.8016586    
     46000   2.847026       0.32416861     0              3.164077       5.1746572    
     46500   2.911203       0.29648997     0              3.2004149      5.2172029    
     47000   2.9027392      0.22434658     0              3.119829       4.5502633    
     47500   2.820789       0.25818405     0              3.0719211      4.807014     
     48000   3.1410105      0.38653846     0              3.5196964      6.3185155    
     48500   3.1383592      0.32070874     0              3.451222       5.6430052    
     49000   3.1789633      0.30057016     0              3.4715861      5.5376776    
     49500   3.0072238      0.37945125     0              3.3791569      6.200393     
     50000   2.9379735      0.43936795     0              3.3699965      6.3169663    
Loop time of 0.89718 on 8 procs for 50000 steps with 400 atoms

Performance: 48150894.095 tau/day, 55730.201 timesteps/s, 22.292 Matom-step/s
99.3% CPU use with 8 MPI tasks x 1 OpenMP threads

MPI task timing breakdown:
Section |  min time  |  avg time  |  max time  |%varavg| %total
---------------------------------------------------------------
Pair    | 0.04013    | 0.040713   | 0.04166    |   0.2 |  4.54
Neigh   | 0.092451   | 0.094011   | 0.096461   |   0.4 | 10.48
Comm    | 0.47684    | 0.48885    | 0.50049    |   1.3 | 54.49
Output  | 0.0012754  | 0.0017409  | 0.0049028  |   2.9 |  0.19
Modify  | 0.13901    | 0.15332    | 0.16778    |   3.1 | 17.09
Other   |            | 0.1185     |            |       | 13.21

Nlocal:             50 ave          53 max          45 min
Histogram: 1 0 0 1 0 1 1 1 2 1
Nghost:         34.375 ave          41 max          30 min
Histogram: 1 2 2 1 0 0 0 0 0 2
Neighs:         64.875 ave          72 max          53 min
Histogram: 1 0 0 2 0 1 0 0 1 3

Total # of neighbors = 519
Ave neighs/atom = 1.2975
Neighbor list builds = 16893
Dangerous builds = 0
Generated 0 of 0 mixed pair_coeff terms from geometric mixing rule
Setting up Verlet run ...
  Unit style    : lj
  Current step  : 50000
  Time step     : 0.01
Per MPI rank memory allocation (min/avg/max) = 3.072 | 3.072 | 3.072 Mbytes
   Step          Temp          E_pair         E_mol          TotEng         Press     
     50000   2.9379735      0.43936795     0              3.3699965      6.3169663    
     50500   3.1425919      0.31045509     0              3.4451905      5.5503183    
     51000   3.0809505      0.35118501     0              3.4244331      5.5783829    
     51500   3.0416463      0.3677497      0              3.4017919      5.6814649    
     52000   2.6667334      0.27896656     0              2.9390331      4.939991     
     52500   2.7476729      0.27286676     0              3.0136704      5.111082     
     53000   2.8002202      0.26648308     0              3.0597027      5.0295927    
     53500   2.8919468      0.2538502      0              3.1385671      4.7193876    
     54000   2.7055127      0.27017748     0              2.9689264      4.8954816    
     54500   2.8712732      0.27272473     0              3.1368198      5.0882806    
     55000   2.7727562      0.25964962     0              3.0254739      4.9546158    
     55500   2.8090654      0.31277473     0              3.1148174      5.2396385    
     56000   2.8024255      0.4008793      0              3.1962987      6.0344495    
     56500   3.0658952      0.37769267     0              3.4359231      5.7098905    
     57000   2.963855       0.25739932     0              3.2138447      4.8126098    
     57500   2.7544678      0.26763042     0              3.0152121      4.7897448    
     58000   2.8785808      0.23265073     0              3.1040351      4.7540421    
     58500   2.7085931      0.33378528     0              3.0356069      5.5311973    
     59000   2.7651804      0.32019826     0              3.0784657      5.3567588    
     59500   2.5083145      0.28432231     0              2.786366       4.976122     
     60000   2.584209       0.23277995     0              2.8105284      4.43119      
     60500   2.7333124      0.26218137     0              2.9886605      4.9719049    
     61000   2.6165881      0.30011311     0              2.9101597      5.0793626    
     61500   2.6589915      0.30534734     0              2.9576914      5.3409375    
     62000   2.5251721      0.21220534     0              2.7310645      4.3340433    
     62500   2.578242       0.29977069     0              2.8715671      4.996339     
     63000   2.4660055      0.29084785     0              2.7506884      4.8002576    
     63500   2.5840131      0.19692225     0              2.7744753      4.3072804    
     64000   2.4439843      0.21222363     0              2.650098       4.0687655    
     64500   2.6951619      0.27185254     0              2.9602765      4.6821211    
     65000   2.4900228      0.31098343     0              2.7947812      5.040919     
     65500   2.5367296      0.28189071     0              2.8122785      4.8683385    
     66000   2.493727       0.25637087     0              2.7438635      4.6182564    
     66500   2.3147769      0.26247455     0              2.5714646      4.6172598    
     67000   2.4824018      0.21619236     0              2.6923882      4.227409     
     67500   2.4156041      0.246449       0              2.656014       4.4465676    
     68000   2.451662       0.18824811     0              2.6337809      3.8481814    
     68500   2.514337       0.30227572     0              2.8103269      4.897306     
     69000   2.4804496      0.28379504     0              2.7580435      5.0068746    
     69500   2.5295207      0.26289979     0              2.7860967      4.7060012    
     70000   2.5516482      0.19953956     0              2.7448086      4.0793987    
     70500   2.571959       0.214322       0              2.7798511      4.4333675    
     71000   2.4791627      0.23362108     0              2.7065859      4.3781333    
     71500   2.2474368      0.18119323     0              2.4230114      3.8547502    
     72000   2.2498059      0.24796563     0              2.4921471      4.4749501    
     72500   2.3274667      0.16155882     0              2.4832068      3.6990713    
     73000   2.1106079      0.20919521     0              2.3145266      4.0413129    
     73500   2.1505285      0.17179711     0              2.3169493      3.7138552    
     74000   2.3053807      0.18187558     0              2.4814928      3.8277676    
     74500   2.2280109      0.23936567     0              2.4618065      4.2825403    
     75000   2.2185755      0.2763517      0              2.4893808      4.6896922    
     75500   2.3888231      0.23534942     0              2.6182004      4.4727339    
     76000   2.3026985      0.27381801     0              2.5707598      4.6415267    
     76500   2.2471645      0.24092706     0              2.4824737      4.296728     
     77000   2.3917576      0.15628459     0              2.5420628      3.4630034    
     77500   2.2508101      0.17241543     0              2.4175985      3.6802956    
     78000   2.3429674      0.1584778      0              2.4955878      3.5741879    
     78500   2.2307957      0.15650743     0              2.3817261      3.478181     
     79000   2.2861095      0.2431608      0              2.5235551      4.2856181    
     79500   2.2134207      0.18694728     0              2.3948344      3.7614966    
     80000   2.0976237      0.27832582     0              2.3707054      4.6589232    
     80500   2.1868692      0.21249564     0              2.3938976      4.1231788    
     81000   2.0672785      0.23614866     0              2.298259       4.184089     
     81500   2.1730767      0.18884526     0              2.3564892      3.7910405    
     82000   2.1627346      0.11548249     0              2.2728102      3.0559392    
     82500   1.9955301      0.26005554     0              2.2505968      4.3136072    
     83000   2.0190015      0.206767       0              2.220721       3.7150696    
     83500   1.9635747      0.2602666      0              2.2189324      4.4383832    
     84000   2.1076469      0.19571434     0              2.2980921      3.72479      
     84500   2.0407301      0.19119047     0              2.2268187      3.717472     
     85000   2.1728056      0.1282666      0              2.2956402      3.0868495    
     85500   1.9303037      0.11271326     0              2.0381912      2.8995526    
     86000   1.9081453      0.16684384     0              2.0702188      3.281879     
     86500   1.8613236      0.18383218     0              2.0405025      3.4194479    
     87000   1.8074282      0.25494588     0              2.0578555      4.1110918    
     87500   1.8943663      0.18319282     0              2.0728232      3.6966628    
     88000   1.9632631      0.15801416     0              2.1163691      3.2312909    
     88500   1.9280118      0.20333945     0              2.1265312      3.7053519    
     89000   1.9721427      0.16581397     0              2.1330263      3.5584403    
     89500   1.9695413      0.19006681     0              2.1546843      3.6302067    
     90000   1.9283335      0.19337096     0              2.1168837      3.6687069    
     90500   1.77701        0.21553317     0              1.9881006      3.7493795    
     91000   1.8338495      0.13150382     0              1.9607687      2.8626474    
     91500   1.7170573      0.15606753     0              1.8688321      3.1814475    
     92000   1.7072444      0.12617361     0              1.8291499      2.8012755    
     92500   1.4602622      0.2342564      0              1.690868       3.7778305    
     93000   1.6869174      0.13426832     0              1.8169684      2.9095048    
     93500   1.7477022      0.13694031     0              1.8802733      3.139535     
     94000   1.7090315      0.15724643     0              1.8620053      3.1249894    
     94500   1.7423245      0.14952315     0              1.8874918      3.0823853    
     95000   1.723784       0.22792531     0              1.9473998      3.9188408    
     95500   1.9123485      0.19275646     0              2.1003241      3.734912     
     96000   1.7397907      0.17944515     0              1.9148864      3.5104297    
     96500   1.7402141      0.13095959     0              1.8668232      2.8683426    
     97000   1.6541954      0.14254744     0              1.7926073      3.0601667    
     97500   1.7417048      0.17341574     0              1.9107663      3.3502222    
     98000   1.6422718      0.15508885     0              1.793255       3.1706423    
     98500   1.6478744      0.086592266    0              1.730347       2.4823389    
     99000   1.5940498      0.15309771     0              1.7431624      3.1411       
     99500   1.5918142      0.11221424     0              1.7000489      2.7038161    
    100000   1.5995636      0.15532844     0              1.7508932      3.2333985    
    100500   1.5214781      0.18772669     0              1.7054011      3.3704319    
    101000   1.5601675      0.12547276     0              1.6817398      2.7757705    
    101500   1.3530714      0.12116634     0              1.470855       2.5616551    
    102000   1.3361727      0.12990979     0              1.4627421      2.6481795    
    102500   1.4510337      0.072052395    0              1.5194585      2.1558377    
    103000   1.415066       0.15131229     0              1.5628406      2.9318123    
    103500   1.4343451      0.086871264    0              1.5176305      2.3412393    
    104000   1.426809       0.11981347     0              1.5430555      2.7246621    
    104500   1.4621746      0.1669522      0              1.6254714      3.1745994    
    105000   1.5300031      0.11235623     0              1.6385343      2.4452546    
    105500   1.3917872      0.15178141     0              1.5400891      3.0466687    
    106000   1.3693083      0.13813901     0              1.504024       2.800072     
    106500   1.2700891      0.10877499     0              1.3756889      2.4796508    
    107000   1.2625769      0.12012981     0              1.3795503      2.5769681    
    107500   1.318868       0.11767294     0              1.4332438      2.5174354    
    108000   1.3123564      0.09848548     0              1.407561       2.3086018    
    108500   1.2789933      0.12519808     0              1.4009939      2.6199633    
    109000   1.1715835      0.11865403     0              1.2873086      2.4834152    
    109500   1.1948233      0.097763968    0              1.2896002      2.3317266    
    110000   1.2266014      0.097262825    0              1.3207978      2.320568     
    110500   1.2450494      0.15274694     0              1.3946837      2.7224474    
    111000   1.2686196      0.074649458    0              1.3400975      2.0047618    
    111500   1.2861804      0.10921464     0              1.3921796      2.4275593    
    112000   1.231847       0.090725713    0              1.3194931      2.2226626    
    112500   1.2347095      0.088451564    0              1.3200743      2.1415537    
    113000   1.2640825      0.10528116     0              1.3662034      2.5037075    
    113500   1.2447191      0.097644915    0              1.3392522      2.1791767    
    114000   1.1397962      0.10939605     0              1.2463427      2.3910828    
    114500   1.1173297      0.077579933    0              1.1921163      1.8488226    
    115000   1.1140568      0.067110543    0              1.1783822      1.8692308    
    115500   1.07257        0.071179672    0              1.1410683      1.9361087    
    116000   1.0326376      0.082438727    0              1.1124947      2.0261903    
    116500   1.0839802      0.11056781     0              1.1918381      2.3631845    
    117000   1.1177791      0.075974911    0              1.1909596      2.0337193    
    117500   1.115706       0.072446447    0              1.1853632      1.9057789    
    118000   1.0445413      0.066866201    0              1.1087961      1.7911013    
    118500   0.9700773      0.10930857     0              1.0769607      2.3508442    
    119000   0.93925791     0.061839916    0              0.99874968     1.651615     
    119500   0.950592       0.068426875    0              1.0166424      1.7831165    
    120000   0.93587869     0.079172936    0              1.0127119      1.928028     
    120500   0.90112182     0.077872006    0              0.97674102     1.8777424    
    121000   0.9415154      0.069479724    0              1.0086413      1.7125976    
    121500   0.96495522     0.072916319    0              1.0354592      1.8580034    
    122000   0.90843468     0.079789303    0              0.98595289     1.9003929    
    122500   0.96436605     0.05143101     0              1.0133861      1.5997633    
    123000   0.89771613     0.057604852    0              0.95307669     1.5695871    
    123500   0.9219137      0.079940053    0              0.99954897     1.8814096    
    124000   0.84518939     0.081386035    0              0.92446245     1.9087554    
    124500   0.81708009     0.067158512    0              0.8821959      1.6214725    
    125000   0.8161114      0.058401913    0              0.87247304     1.6091617    
    125500   0.82577511     0.056449545    0              0.88016021     1.5512786    
    126000   0.82433687     0.054767278    0              0.87704331     1.5630099    
    126500   0.80850354     0.059199697    0              0.86568198     1.6636498    
    127000   0.84718418     0.062239545    0              0.90730576     1.6217463    
    127500   0.82423094     0.043285244    0              0.86545561     1.3752425    
    128000   0.72374142     0.056541517    0              0.77847358     1.4487592    
    128500   0.69561945     0.047378363    0              0.74125876     1.337418     
    129000   0.67726655     0.04923033     0              0.72480371     1.369424     
    129500   0.69226886     0.046130889    0              0.73666908     1.2974501    
    130000   0.69122618     0.043767297    0              0.73326541     1.2669438    
    130500   0.70463087     0.036911671    0              0.73978097     1.2677824    
    131000   0.65932539     0.047065318    0              0.70474239     1.3539762    
    131500   0.68627388     0.036529854    0              0.72108805     1.2287591    
    132000   0.62929872     0.044421663    0              0.67214714     1.2766994    
    132500   0.63522162     0.052052504    0              0.68568607     1.4289804    
    133000   0.61036377     0.036070698    0              0.64490856     1.1786177    
    133500   0.59295529     0.038041567    0              0.62951447     1.1176405    
    134000   0.60465744     0.039244833    0              0.64239063     1.2295482    
    134500   0.54609403     0.028956256    0              0.57368505     0.98469473   
    135000   0.53875257     0.029533531    0              0.56693922     0.99564966   
    135500   0.50267348     0.040184605    0              0.5416014      1.0928605    
    136000   0.47510637     0.029950938    0              0.50386954     0.94727469   
    136500   0.45256375     0.037688683    0              0.48912102     1.0087236    
    137000   0.4513719      0.020677198    0              0.47092067     0.74872134   
    137500   0.46563394     0.021132071    0              0.48560193     0.80554037   
    138000   0.43947004     0.028916027    0              0.46728739     0.87773814   
    138500   0.45869963     0.024703472    0              0.48225636     0.83084918   
    139000   0.42844634     0.025153501    0              0.45252873     0.89339689   
    139500   0.41832642     0.026601846    0              0.44388245     0.90150711   
    140000   0.39983476     0.035460555    0              0.43429573     0.96493808   
    140500   0.38522056     0.016428393    0              0.4006859      0.69426068   
    141000   0.36641615     0.018629423    0              0.38412954     0.72839225   
    141500   0.34312645     0.023365929    0              0.36563456     0.78064453   
    142000   0.36071274     0.020515528    0              0.38032648     0.76337323   
    142500   0.3292542      0.01699909     0              0.34543016     0.6305734    
    143000   0.32234219     0.011267637    0              0.33280397     0.55341889   
    143500   0.29969138     0.015108916    0              0.31405106     0.57655937   
    144000   0.26178986     0.015964576    0              0.27709996     0.6037908    
    144500   0.25154381     0.011703017    0              0.26261796     0.51761219   
    145000   0.25483512     0.016367837    0              0.27056586     0.62363814   
    145500   0.26201049     0.012960262    0              0.27431572     0.55568723   
    146000   0.23011328     0.0072561622   0              0.23679415     0.39028573   
    146500   0.20184746     0.01064185     0              0.21198469     0.45827231   
    147000   0.18125415     0.0059298241   0              0.18673084     0.34309337   
    147500   0.17550204     0.0035496584   0              0.17861294     0.25674187   
    148000   0.16855191     0.006535826    0              0.17466635     0.35628809   
    148500   0.13734604     0.0051966771   0              0.14219935     0.28220397   
    149000   0.12756514     0.0060129215   0              0.13325915     0.29061594   
    149500   0.11574661     0.0040094705   0              0.11946671     0.22569279   
    150000   0.098931626    0.0019455062   0              0.1006298      0.18526189   
Loop time of 1.66038 on 8 procs for 100000 steps with 400 atoms

Performance: 52036280.487 tau/day, 60227.176 timesteps/s, 24.091 Matom-step/s
99.4% CPU use with 8 MPI tasks x 1 OpenMP threads

MPI task timing breakdown:
Section |  min time  |  avg time  |  max time  |%varavg| %total
---------------------------------------------------------------
Pair    | 0.070763   | 0.07174    | 0.072718   |   0.3 |  4.32
Neigh   | 0.13531    | 0.13639    | 0.13873    |   0.3 |  8.21
Comm    | 0.89071    | 0.91169    | 0.93269    |   1.7 | 54.91
Output  | 0.016727   | 0.016837   | 0.017402   |   0.2 |  1.01
Modify  | 0.27279    | 0.30061    | 0.33052    |   4.6 | 18.10
Other   |            | 0.2231     |            |       | 13.44

Nlocal:             50 ave          54 max          46 min
Histogram: 3 0 0 0 0 0 2 0 2 1
Nghost:          33.25 ave          36 max          30 min
Histogram: 1 1 0 2 0 0 0 0 3 1
Neighs:         63.625 ave          69 max          50 min
Histogram: 1 0 0 0 0 1 1 1 1 3

Total # of neighbors = 509
Ave neighs/atom = 1.2725
Neighbor list builds = 24677
Dangerous builds = 0
Total wall time: 0:00:02
LAMMPS (15 Sep 2022)
OMP_NUM_THREADS environment is not set. Defaulting to 1 thread. (src/comm.cpp:98)
  using 1 OpenMP thread(s) per MPI task
Lattice spacing in x,y,z = 1.1952286 1.1952286 1.1952286
Created orthogonal box = (0 0 -0.5976143) to (23.904572 23.904572 0.5976143)
  4 by 2 by 1 MPI processor grid
Created 400 atoms
  using lattice units in orthogonal box = (0 0 -0.5976143) to (23.904572 23.904572 0.5976143)
  create_atoms CPU = 0.000 seconds
Generated 0 of 0 mixed pair_coeff terms from geometric mixing rule
Neighbor list info ...
  update: every = 1 steps, delay = 0 steps, check = yes
  max neighbors/atom: 2000, page size: 100000
  master list distance cutoff = 1.3
  ghost atom cutoff = 1.3
  binsize = 0.65, bins = 37 37 2
  1 neighbor lists, perpetual/occasional/extra = 1 0 0
  (1) pair lj/cut, perpetual
      attributes: half, newton on
      pair build: half/bin/atomonly/newton
      stencil: half/bin/2d
      bin: standard
Setting up Verlet run ...
  Unit style    : lj
  Current step  : 0
  Time step     : 0.01
Per MPI rank memory allocation (min/avg/max) = 3.048 | 3.048 | 3.048 Mbytes
   Step          Temp          E_pair         E_mol          TotEng         Press     
         0   3              0              0              2.9925         2.09475      
       500   2.8411519      0.41771154     0              3.2517605      7.6649348    
      1000   2.8944225      0.45725223     0              3.3444386      8.2535418    
      1500   2.9480351      0.41236929     0              3.3530343      7.8302881    
      2000   2.8745036      0.49389595     0              3.3612133      8.6609245    
      2500   2.8652135      0.48517717     0              3.3432276      8.7348488    
      3000   2.9341532      0.5091053      0              3.4359231      8.7950854    
      3500   2.920102       0.37862595     0              3.2914277      7.363285     
      4000   2.9659317      0.49110124     0              3.4496181      8.7986275    
      4500   3.0167085      0.44205998     0              3.4512267      7.9221382    
      5000   2.9373966      0.50012672     0              3.4301798      8.1963138    
      5500   3.2276586      0.59493961     0              3.8145291      9.6417079    
      6000   3.1039643      0.49791191     0              3.5941163      8.5943545    
      6500   3.151305       0.45935742     0              3.6027841      8.101313     
      7000   3.1131641      0.45519452     0              3.5605757      8.2147811    
      7500   3.1522293      0.44050654     0              3.5848553      7.8774808    
      8000   3.0023609      0.54592943     0              3.5407845      8.8812214    
      8500   2.7823984      0.46936659     0              3.244809       8.2711322    
      9000   2.9495893      0.44254109     0              3.3847565      8.0451365    
      9500   2.8550613      0.459629       0              3.3075526      7.8495998    
     10000   2.7712671      0.42694987     0              3.1912888      7.89787      
     10500   2.7950789      0.55410437     0              3.3421955      9.0397334    
     11000   2.9852132      0.53721836     0              3.5149685      8.9996358    
     11500   3.0214326      0.60109668     0              3.6149757      9.5721661    
     12000   3.0411159      0.56652674     0              3.6000398      8.9959382    
     12500   3.0027927      0.44117649     0              3.4364622      8.0876158    
     13000   2.8948679      0.32942294     0              3.2170536      7.0419466    
     13500   2.9787371      0.46853372     0              3.4398239      8.3362216    
     14000   2.8347035      0.55441703     0              3.3820337      8.9789726    
     14500   2.9839626      0.50826006     0              3.4847628      8.3951017    
     15000   2.9362921      0.39334127     0              3.3222926      7.3192515    
     15500   2.5700927      0.48294433     0              3.0466118      8.0331425    
     16000   2.785001       0.48568026     0              3.2637188      8.3222273    
     16500   2.7441574      0.58219256     0              3.3194896      8.9857023    
     17000   2.8820336      0.50262027     0              3.3774488      8.7260192    
     17500   2.933321       0.49221295     0              3.4182007      8.4161271    
     18000   2.9516074      0.41899828     0              3.3632266      7.8637337    
     18500   2.9748533      0.55212622     0              3.5195424      8.9769898    
     19000   2.9911014      0.54387869     0              3.5275023      9.0593765    
     19500   3.2280808      0.3633825      0              3.5833931      7.3954246    
     20000   3.4788454      0.50381869     0              3.973967       8.9415068    
     20500   3.0857163      0.56150584     0              3.6395078      8.8562728    
     21000   3.2076581      0.38637191     0              3.5860108      7.5808404    
     21500   3.0245927      0.43066708     0              3.4476983      8.0528944    
     22000   3.089742       0.55673553     0              3.6387532      8.9785295    
     22500   3.0712294      0.53039233     0              3.5939436      8.834608     
     23000   3.3508896      0.35324204     0              3.6957544      7.4724154    
     23500   2.9072435      0.50520476     0              3.4051801      8.6649747    
     24000   3.0044374      0.41338852     0              3.4103149      7.7827256    
     24500   3.061882       0.42928734     0              3.4835146      8.014188     
     25000   3.0790698      0.37945896     0              3.4508311      7.44174      
     25500   3.1854112      0.43376135     0              3.611209       7.784718     
     26000   3.2705268      0.45364532     0              3.7159958      8.3430782    
     26500   3.2396851      0.4831345      0              3.7147204      8.5415774    
     27000   2.9891921      0.42795556     0              3.4096746      7.9690757    
     27500   3.0574465      0.48344249     0              3.5332454      8.6170864    
     28000   3.0658761      0.44045057     0              3.498662       7.9570991    
     28500   3.1443661      0.45891635     0              3.5954216      8.2293468    
     29000   2.845058       0.42630904     0              3.2642544      7.8702837    
     29500   2.7068511      0.41019148     0              3.1102755      7.2951761    
     30000   2.7702419      0.48487621     0              3.2481925      8.5413176    
     30500   2.8556485      0.48501547     0              3.3335248      7.9488136    
     31000   2.9810725      0.3550188      0              3.3286386      7.2386319    
     31500   2.7993369      0.47110793     0              3.2634465      8.2236226    
     32000   2.8239659      0.38015666     0              3.1970627      7.099004     
     32500   3.0039939      0.43306218     0              3.4295461      7.9510273    
     33000   2.9659323      0.40923384     0              3.3677513      7.890223     
     33500   3.0742571      0.36598377     0              3.4325552      6.9467054    
     34000   3.0462248      0.43088838     0              3.4694976      7.8152072    
     34500   2.9754709      0.55071085     0              3.518743       8.8292601    
     35000   2.6566508      0.46721184     0              3.117221       8.2964921    
     35500   2.877306       0.4117185      0              3.2818312      7.654428     
     36000   3.0861157      0.45098012     0              3.5293805      8.2369085    
     36500   3.0730631      0.50816268     0              3.5735431      8.3440443    
     37000   3.1743326      0.41552172     0              3.5819185      7.8124973    
     37500   3.1301745      0.52555198     0              3.647901       8.8734791    
     38000   3.0622688      0.52939612     0              3.5840092      8.7765438    
     38500   2.8096671      0.45103188     0              3.2536748      7.9221708    
     39000   2.8785851      0.45308026     0              3.3244688      8.0291491    
     39500   2.89931        0.43906623     0              3.331128       7.9286218    
     40000   2.8428817      0.54471992     0              3.3804944      8.7692898    
     40500   2.8688994      0.37921626     0              3.2409434      7.2468332    
     41000   3.0363324      0.43161541     0              3.460357       7.8058616    
     41500   3.1029578      0.54894154     0              3.644142       9.0915227    
     42000   3.004225       0.46395781     0              3.4606722      8.395538     
     42500   3.2114983      0.43264422     0              3.6361137      8.0973353    
     43000   3.0855191      0.42151489     0              3.4993202      7.9185135    
     43500   3.0947747      0.41958108     0              3.5066189      7.9208554    
     44000   2.9175832      0.53026607     0              3.4405553      8.7175352    
     44500   3.0651873      0.42234766     0              3.479872       7.8232882    
     45000   3.0574892      0.52486598     0              3.5747115      8.9520753    
     45500   3.1343658      0.40493409     0              3.531464       7.6795111    
     46000   3.1134629      0.39127128     0              3.4969505      7.630933     
     46500   3.1257595      0.4600664      0              3.5780115      8.2239505    
     47000   3.0906673      0.37139052     0              3.4543312      7.5334729    
     47500   3.1793815      0.45346748     0              3.6249005      8.1994219    
     48000   3.1349461      0.39634672     0              3.5234555      7.6676663    
     48500   3.0203779      0.51451159     0              3.5273385      8.8239327    
     49000   3.2783189      0.3575654      0              3.6276885      7.4324444    
     49500   3.2676444      0.53669637     0              3.7961717      9.1918592    
     50000   3.3246246      0.47282262     0              3.7891357      8.6579878    
Loop time of 0.923534 on 8 procs for 50000 steps with 400 atoms

Performance: 46776845.070 tau/day, 54139.867 timesteps/s, 21.656 Matom-step/s
99.3% CPU use with 8 MPI tasks x 1 OpenMP threads

MPI task timing breakdown:
Section |  min time  |  avg time  |  max time  |%varavg| %total
---------------------------------------------------------------
Pair    | 0.047166   | 0.047811   | 0.048861   |   0.3 |  5.18
Neigh   | 0.10107    | 0.10228    | 0.1049     |   0.4 | 11.07
Comm    | 0.49081    | 0.49986    | 0.51034    |   1.2 | 54.13
Output  | 0.0012618  | 0.0017296  | 0.0049456  |   2.9 |  0.19
Modify  | 0.13644    | 0.15323    | 0.16768    |   3.3 | 16.59
Other   |            | 0.1186     |            |       | 12.85

Nlocal:             50 ave          53 max          47 min
Histogram: 2 0 0 1 0 1 2 0 1 1
Nghost:           38.5 ave          42 max          34 min
Histogram: 1 1 1 0 0 0 1 1 2 1
Neighs:         80.125 ave         101 max          64 min
Histogram: 1 2 0 0 1 2 1 0 0 1

Total # of neighbors = 641
Ave neighs/atom = 1.6025
Neighbor list builds = 16907
Dangerous builds = 0
Generated 0 of 0 mixed pair_coeff terms from geometric mixing rule
Setting up Verlet run ...
  Unit style    : lj
  Current step  : 50000
  Time step     : 0.01
Per MPI rank memory allocation (min/avg/max) = 3.072 | 3.072 | 3.072 Mbytes
   Step          Temp          E_pair         E_mol          TotEng         Press     
     50000   3.3246246      0.47282262     0              3.7891357      8.6579878    
     50500   3.1858426      0.41378966     0              3.5916677      8.0387169    
     51000   3.2918428      0.36897443     0              3.6525876      7.4789312    
     51500   3.0601165      0.44494197     0              3.4974082      8.1174185    
     52000   3.1227491      0.49866149     0              3.6136037      8.7714945    
     52500   3.1487001      0.54348111     0              3.6843095      9.0872932    
     53000   3.1326816      0.42084682     0              3.5456967      8.0316325    
     53500   2.8868532      0.53309583     0              3.4127319      8.6818065    
     54000   2.8915069      0.43540561     0              3.3196837      7.9107891    
     54500   2.9215595      0.42682568     0              3.3410813      7.7792579    
     55000   2.7642396      0.49495379     0              3.2522828      8.6218406    
     55500   3.0632314      0.34226407     0              3.3978374      7.170036     
     56000   2.5711939      0.593704       0              3.1584699      9.0586249    
     56500   2.7832064      0.37760922     0              3.1538576      7.0395398    
     57000   2.6531597      0.35483813     0              3.001365       7.1532326    
     57500   2.6741854      0.49841687     0              3.1659168      8.3131853    
     58000   2.63574        0.39453773     0              3.0236884      7.5504449    
     58500   2.5938153      0.36666867     0              2.9539994      6.824204     
     59000   2.415382       0.34839836     0              2.7577419      7.027842     
     59500   2.6650874      0.34617529     0              3.0046         6.8545159    
     60000   2.6971857      0.39176201     0              3.0822048      7.4557751    
     60500   2.6768878      0.39290599     0              3.0631016      7.4523553    
     61000   2.7374988      0.43430472     0              3.1649598      7.8645882    
     61500   2.9472776      0.4245032      0              3.3644126      7.9572044    
     62000   2.8464715      0.3609688      0              3.2003242      6.9567144    
     62500   2.6378278      0.31384756     0              2.9450808      6.6136518    
     63000   2.6465342      0.42206621     0              3.0619841      7.5165171    
     63500   2.5905176      0.43153321     0              3.0155745      7.7204365    
     64000   2.7538219      0.31326845     0              3.0602058      6.7225899    
     64500   2.6564411      0.31792223     0              2.9677222      6.6319734    
     65000   2.5259999      0.35814003     0              2.8778249      7.0067012    
     65500   2.3299076      0.27895127     0              2.6030341      5.9005466    
     66000   2.4668327      0.28312493     0              2.7437906      6.0764545    
     66500   2.4539334      0.30659578     0              2.7543943      6.366222     
     67000   2.501205       0.33224563     0              2.8271976      6.4485357    
     67500   2.2881087      0.38763465     0              2.6700231      7.1268399    
     68000   2.4441597      0.38273661     0              2.8207859      7.1255119    
     68500   2.4164875      0.4237185      0              2.8341648      7.5124579    
     69000   2.468316       0.34180978     0              2.803955       6.9935345    
     69500   2.478012       0.33258836     0              2.8044054      6.2461228    
     70000   2.4482585      0.41594275     0              2.8580806      7.4649548    
     70500   2.4644557      0.304792       0              2.7630866      6.6145026    
     71000   2.3677175      0.39126704     0              2.7530653      6.8045538    
     71500   2.5695344      0.3163716      0              2.8794822      6.443008     
     72000   2.4746272      0.2884604      0              2.756901       6.0626854    
     72500   2.3731603      0.39954381     0              2.7667712      7.2978129    
     73000   2.3830515      0.38352196     0              2.7606159      7.0245008    
     73500   2.40044        0.30718827     0              2.7016272      6.259027     
     74000   2.3826792      0.49681883     0              2.8735413      8.308368     
     74500   2.401925       0.39162046     0              2.7875406      7.2921269    
     75000   2.4788281      0.28039089     0              2.753022       5.9625987    
     75500   2.3006144      0.34022179     0              2.6350847      6.4502613    
     76000   2.3057291      0.28783738     0              2.5878022      6.1391181    
     76500   2.2635334      0.32856284     0              2.5864374      6.2125959    
     77000   2.2819591      0.33280294     0              2.6090572      6.4538007    
     77500   2.1623294      0.25048091     0              2.4074045      5.3763833    
     78000   1.9876618      0.30966458     0              2.2923572      5.8797111    
     78500   2.081846       0.36474194     0              2.4413833      6.6533072    
     79000   2.135784       0.24998328     0              2.3804279      5.4250553    
     79500   2.1757258      0.25973698     0              2.4300235      5.6226927    
     80000   2.1007832      0.26037518     0              2.3559065      5.6494653    
     80500   2.0711042      0.30831758     0              2.374244       5.6745764    
     81000   1.9349343      0.38104986     0              2.3111468      6.8682865    
     81500   2.0724628      0.23707665     0              2.3043582      5.3153094    
     82000   2.0527768      0.28900817     0              2.3366531      5.7742696    
     82500   2.061098       0.24680041     0              2.3027457      5.5425788    
     83000   1.8882709      0.27433994     0              2.1578902      5.3175178    
     83500   1.9532322      0.32363296     0              2.2719821      6.4325371    
     84000   1.8572644      0.27732711     0              2.1299484      5.5982343    
     84500   1.9476872      0.26782967     0              2.2106476      5.7668813    
     85000   1.9394462      0.21489029     0              2.1494879      4.8428618    
     85500   1.8054758      0.25561305     0              2.0565752      5.2061777    
     86000   1.9087489      0.18744535     0              2.0914223      4.476999     
     86500   1.9844087      0.26091942     0              2.2403671      5.4648643    
     87000   2.0170177      0.28932654     0              2.3013017      5.8921205    
     87500   1.8865206      0.32371036     0              2.2055146      6.0883273    
     88000   2.0021679      0.27219832     0              2.2693608      5.5558456    
     88500   1.9024465      0.38883218     0              2.2865225      6.8556809    
     89000   2.0558801      0.28978355     0              2.3405239      6.021022     
     89500   1.8380509      0.28532747     0              2.1187833      5.4940452    
     90000   1.8552124      0.19881547     0              2.0493899      4.6293231    
     90500   1.8607192      0.27465658     0              2.130724       5.7622245    
     91000   1.8083525      0.28884777     0              2.0926794      5.707158     
     91500   1.7244008      0.32260762     0              2.0426974      5.9584703    
     92000   1.6568018      0.2400581      0              1.8927179      5.0188618    
     92500   1.7634503      0.20754145     0              1.9665831      4.5833706    
     93000   1.7746091      0.15962026     0              1.9297928      4.0119937    
     93500   1.6492618      0.20872041     0              1.8538591      4.562139     
     94000   1.5692446      0.19487298     0              1.7601945      4.389381     
     94500   1.581068       0.2391143      0              1.8162296      4.7979203    
     95000   1.6567487      0.25978796     0              1.9123948      5.071044     
     95500   1.6855769      0.25439479     0              1.9357577      5.0931674    
     96000   1.7317608      0.20452738     0              1.9319588      4.6426782    
     96500   1.7915265      0.2096438      0              1.9966915      4.86719      
     97000   1.6471008      0.24088042     0              1.8838634      5.1379308    
     97500   1.591407       0.18236848     0              1.7697969      4.2754727    
     98000   1.4841465      0.21359955     0              1.6940357      4.8117565    
[...]

Performance: 43168269.973 tau/day, 49963.275 timesteps/s, 19.985 Matom-step/s
99.3% CPU use with 8 MPI tasks x 1 OpenMP threads

MPI task timing breakdown:
Section |  min time  |  avg time  |  max time  |%varavg| %total
---------------------------------------------------------------
Pair    | 0.09362    | 0.098366   | 0.10829    |   1.4 |  9.83
Neigh   | 0.095747   | 0.096897   | 0.097568   |   0.2 |  9.68
Comm    | 0.52307    | 0.53443    | 0.54729    |   1.3 | 53.40
Output  | 0.001308   | 0.0017947  | 0.0051249  |   3.0 |  0.18
Modify  | 0.12928    | 0.15025    | 0.1682     |   4.2 | 15.01
Other   |            | 0.119      |            |       | 11.89

Nlocal:             50 ave          53 max          47 min
Histogram: 1 0 0 2 0 3 0 0 1 1
Nghost:         49.375 ave          53 max          48 min
Histogram: 5 0 0 0 0 0 2 0 0 1
Neighs:        148.125 ave         157 max         140 min
Histogram: 1 0 1 3 0 1 0 0 0 2

Total # of neighbors = 1185
Ave neighs/atom = 2.9625
Neighbor list builds = 16851
Dangerous builds = 0
Generated 0 of 0 mixed pair_coeff terms from geometric mixing rule
Setting up Verlet run ...
  Unit style    : lj
  Current step  : 50000
  Time step     : 0.01
Per MPI rank memory allocation (min/avg/max) = 3.072 | 3.072 | 3.072 Mbytes
   Step          Temp          E_pair         E_mol          TotEng         Press     
     50000   2.8080075      2.2423285      0              5.043316       46.484721    
     50500   3.0740222      2.0560216      0              5.1223587      44.432396    
     51000   2.7921201      2.1333601      0              4.9184999      43.777553    
     51500   3.01198        2.2237268      0              5.2281769      46.801797    
     52000   2.9647029      1.8854958      0              4.842787       41.695998    
     52500   3.0392015      2.0014586      0              5.0330622      43.311192    
     53000   2.847439       2.0486578      0              4.8889781      44.225976    
     53500   2.6793842      2.1200572      0              4.7927429      44.211116    
     54000   2.9549864      2.1366734      0              5.0842723      45.569318    
     54500   3.0917351      1.9154165      0              4.9994223      41.054985    
     55000   2.884846       1.9093036      0              4.7869375      40.973354    
     55500   2.9522799      2.0150088      0              4.959908       43.71389     
     56000   2.7944393      1.7804244      0              4.5678776      40.455583    
     56500   2.8859053      1.9556761      0              4.8343666      43.20741     
     57000   2.743793       1.8770948      0              4.6140282      41.391176    
     57500   2.7553934      1.8602363      0              4.6087413      42.026354    
     58000   2.7588316      1.7494598      0              4.5013943      40.322642    
     58500   2.7174844      1.8553784      0              4.5660691      40.174159    
     59000   2.8077537      1.9254093      0              4.7261436      42.418335    
     59500   2.6054211      1.7820724      0              4.38098        39.598184    
     60000   2.7225707      1.8671435      0              4.5829078      41.046828    
     60500   2.9147896      1.9756331      0              4.8831357      43.874758    
     61000   2.5089783      1.7825047      0              4.2852105      39.826138    
     61500   2.7269601      1.6622279      0              4.3823706      38.431045    
     62000   2.6331207      1.7724364      0              4.3989744      39.526829    
     62500   2.7903903      1.9307513      0              4.7141656      42.205684    
     63000   2.8220944      1.64658        0              4.4616191      38.465665    
     63500   2.6476594      1.7776746      0              4.4187148      39.857454    
     64000   2.9183495      1.6588598      0              4.5699134      38.223956    
     64500   2.5897362      1.7534773      0              4.3367391      39.097537    
     65000   2.5838521      1.794368       0              4.3717605      40.560787    
     65500   2.7496849      1.7873038      0              4.5301145      39.971985    
     66000   2.480161       1.68327        0              4.1572306      38.163954    
     66500   2.406405       1.7538548      0              4.1542438      38.607026    
     67000   2.3565293      1.82675        0              4.177388       40.428026    
     67500   2.5862851      1.6636794      0              4.2434989      38.655281    
     68000   2.5570176      1.7713334      0              4.3219584      39.381139    
     68500   2.4253784      1.7314304      0              4.1507454      39.237217    
     69000   2.3239975      1.7493583      0              4.0675459      38.214583    
     69500   2.4839439      1.6019153      0              4.0796494      36.654411    
     70000   2.3555605      1.6450873      0              3.9947588      37.758464    
     70500   2.3962698      1.7046949      0              4.094974       39.267322    
     71000   2.5553076      1.6986481      0              4.2475675      38.713569    
     71500   2.4447805      1.6778158      0              4.1164843      37.794931    
     72000   2.2952076      1.7227562      0              4.0122258      38.328978    
     72500   2.3948203      1.5286655      0              3.9174987      36.01238     
     73000   2.3344474      1.4061447      0              3.734756       33.514533    
     73500   2.1317085      1.7408771      0              3.8672563      38.682308    
     74000   2.3971125      1.5759843      0              3.967104       36.302019    
     74500   2.5323476      1.5413999      0              4.0674166      35.656978    
     75000   2.5001978      1.5086422      0              4.0025896      35.854604    
     75500   2.2196042      1.4709338      0              3.6849889      35.001512    
     76000   2.1219129      1.5183272      0              3.6349353      36.210147    
     76500   2.0726735      1.4613319      0              3.5288237      34.168965    
     77000   2.1757889      1.5712851      0              3.7416345      36.71268     
     77500   2.1259804      1.4709059      0              3.5915714      35.323548    
     78000   2.2810424      1.4252425      0              3.7005823      34.890986    
     78500   2.0695931      1.6359513      0              3.7003705      38.049178    
     79000   2.2535192      1.6197162      0              3.8676016      37.138322    
     79500   2.189174       1.4250093      0              3.6087103      34.73968     
     80000   2.2109135      1.3352591      0              3.5406452      33.106967    
     80500   1.9865906      1.4954345      0              3.4770586      34.547579    
     81000   2.0234427      1.4037883      0              3.4221725      33.84274     
     81500   2.0824193      1.3235821      0              3.4007954      32.687273    
     82000   1.9700597      1.3782411      0              3.3433756      33.2523      
     82500   2.000019       1.2844628      0              3.2794817      31.614039    
     83000   1.9129009      1.2902799      0              3.1983986      31.444779    
     83500   1.9210666      1.3829836      0              3.2992476      33.628818    
     84000   2.0692987      1.2792534      0              3.3433789      32.20092     
     84500   1.9951337      1.3736545      0              3.3638003      33.474847    
     85000   2.024503       1.3119979      0              3.3314397      32.354853    
     85500   2.0566685      1.17845        0              3.2299768      30.399624    
     86000   1.8725174      1.3388226      0              3.2066587      32.529398    
     86500   1.9409266      1.2680897      0              3.204164       31.628806    
     87000   1.8030284      1.3248324      0              3.1233533      32.158329    
     87500   2.1996072      1.3062113      0              3.5003194      32.977935    
     88000   1.8978579      1.4557676      0              3.3488808      34.556839    
     88500   2.0146183      1.262354       0              3.2719357      31.349786    
     89000   1.7756484      1.47797        0              3.2491792      34.700613    
     89500   1.8462055      1.2786035      0              3.1201935      32.197111    
     90000   1.8475928      1.2272518      0              3.0702256      31.155214    
     90500   1.6329013      1.2002145      0              2.8290335      30.504309    
     91000   1.7859123      1.1883623      0              2.9698098      30.439324    
     91500   1.8183526      1.228794       0              3.0426007      30.975064    
     92000   1.7951318      1.2781295      0              3.0687735      31.297898    
     92500   1.820948       1.2134371      0              3.0298327      30.469739    
     93000   1.7772852      1.1297592      0              2.9026011      29.794176    
     93500   1.76391        1.1374318      0              2.896932       29.429523    
     94000   1.8532814      1.1397571      0              2.9884053      30.103       
     94500   1.8101551      1.0891359      0              2.8947657      28.418005    
     95000   1.7798959      1.1006764      0              2.8761226      29.187453    
     95500   1.7023912      1.078798       0              2.7769332      28.294871    
     96000   1.5486569      1.1246978      0              2.669483       29.534033    
     96500   1.7430372      0.9909138      0              2.7295934      27.085393    
     97000   1.6887019      1.1329611      0              2.8174413      29.328881    
     97500   1.6864551      1.2224258      0              2.9046648      31.014133    
     98000   1.6927382      1.192367       0              2.8808734      29.553474    
     98500   1.6182718      1.1245033      0              2.7387294      28.938008    
     99000   1.6985513      0.98756885     0              2.6818738      27.79583     
     99500   1.6042919      1.0829672      0              2.6832484      28.404775    
    100000   1.4981551      1.0952422      0              2.5896519      28.88214     
    100500   1.5731715      0.98819875     0              2.5574373      27.161639    
    101000   1.5203229      0.9676647      0              2.4841868      26.389595    
    101500   1.4442521      1.0359352      0              2.4765766      26.837069    
    102000   1.4422424      0.98652988     0              2.4251667      26.808938    
    102500   1.4852637      0.91090903     0              2.3924596      25.254785    
    103000   1.5035586      0.90412257     0              2.4039223      25.148635    
    103500   1.4595544      0.93646882     0              2.3923743      25.033868    
    104000   1.4306676      0.9337536      0              2.3608445      25.690655    
    104500   1.3661756      0.94105588     0              2.303816       26.101176    
    105000   1.4112566      0.88537785     0              2.2931063      25.047814    
    105500   1.4457957      0.90129233     0              2.3434736      25.119826    
    106000   1.397596       0.90000999     0              2.294112       24.925589    
    106500   1.3458638      0.86596141     0              2.2084605      24.538393    
    107000   1.2969032      0.778668       0              2.0723289      22.815354    
    107500   1.284179       0.8468681      0              2.1278366      24.261705    
    108000   1.3566544      0.88722966     0              2.2404924      24.535724    
    108500   1.4021526      0.89051863     0              2.2891659      24.838175    
    109000   1.3446549      0.96984347     0              2.3111367      26.372033    
    109500   1.2418387      0.8058107      0              2.0445448      23.609633    
    110000   1.2001354      0.8588131      0              2.0559482      23.515448    
    110500   1.1952979      0.78294965     0              1.9752593      23.230205    
    111000   1.2013914      0.84223375     0              2.0406217      23.770661    
    111500   1.2312642      0.85503264     0              2.0832187      23.530228    
    112000   1.4126275      0.88074639     0              2.2898423      24.986458    
    112500   1.1796209      0.74122131     0              1.9178932      21.939269    
    113000   1.2222558      0.67487445     0              1.8940746      21.052395    
    113500   1.1708986      0.70043851     0              1.8684099      21.212529    
    114000   1.0732929      0.68899332     0              1.759603       20.900801    
    114500   1.0163425      0.73988488     0              1.7536865      22.197678    
    115000   0.99954887     0.77630601     0              1.773356       22.691666    
    115500   1.1282935      0.71662061     0              1.8420934      21.533857    
    116000   1.0883766      0.73807014     0              1.8237258      22.394796    
    116500   1.0533116      0.75209108     0              1.8027694      22.239745    
    117000   1.1880439      0.63969908     0              1.8247729      20.060729    
    117500   1.0106047      0.71735546     0              1.7254336      21.25622     
    118000   1.042072       0.67005873     0              1.7095256      20.749753    
    118500   1.0081649      0.68284388     0              1.6884884      20.873511    
    119000   0.97901575     0.6613194      0              1.6378876      20.823917    
    119500   1.0076163      0.63719688     0              1.6422942      19.45879     
    120000   1.0186029      0.58408941     0              1.6001458      18.507475    
    120500   0.9815824      0.59052782     0              1.5696563      18.98548     
    121000   0.92633983     0.61048153     0              1.5345055      19.797123    
    121500   0.92194482     0.54410351     0              1.4637435      17.9843      
    122000   0.86562657     0.65282968     0              1.5162922      19.895414    
    122500   0.95223296     0.55977401     0              1.5096264      18.21828     
    123000   0.8680858      0.60587348     0              1.4717891      19.041848    
    123500   0.81036422     0.63517022     0              1.4435085      19.350322    
    124000   0.86542332     0.5304453      0              1.3937051      17.385527    
    124500   0.84227857     0.507673       0              1.3478459      17.184368    
    125000   0.77852084     0.50959842     0              1.286173       17.349847    
    125500   0.74639654     0.47358733     0              1.2181179      16.41161     
    126000   0.82170645     0.50033602     0              1.3199882      16.98384     
    126500   0.81434966     0.50217451     0              1.3144883      16.681317    
    127000   0.6846601      0.48918127     0              1.1721297      16.706458    
    127500   0.72683822     0.46349546     0              1.1885166      16.397618    
    128000   0.73245139     0.46394924     0              1.1945695      16.102693    
    128500   0.76878127     0.47252729     0              1.2393866      16.395568    
    129000   0.73693953     0.48783167     0              1.2229288      16.355922    
    129500   0.7155717      0.44194324     0              1.155726       15.64753     
    130000   0.67575181     0.43122122     0              1.1052837      15.604388    
    130500   0.65914394     0.41022276     0              1.0677188      14.623512    
    131000   0.61612604     0.41424184     0              1.0288276      14.793105    
    131500   0.65390572     0.36004373     0              1.0123147      13.603266    
    132000   0.64457793     0.35555263     0              0.99851912     14.047888    
    132500   0.60379771     0.35417347     0              0.95646169     13.565774    
    133000   0.60574019     0.33053279     0              0.93475862     13.154765    
    133500   0.53715353     0.38153343     0              0.91734407     14.128178    
    134000   0.53160543     0.35127714     0              0.88155356     13.461667    
    134500   0.52619055     0.34300176     0              0.86787684     13.252279    
    135000   0.52180121     0.32588981     0              0.84638652     12.64655     
    135500   0.49713607     0.30968323     0              0.80557646     12.539999    
    136000   0.50060534     0.29812454     0              0.79747837     11.73412     
    136500   0.45590593     0.29569114     0              0.75045731     12.263123    
    137000   0.47251184     0.30088887     0              0.77221942     12.339048    
    137500   0.47332343     0.29843531     0              0.77057543     12.293816    
    138000   0.43478639     0.27607888     0              0.70977831     11.68612     
    138500   0.46266        0.22626704     0              0.68777039     10.064592    
    139000   0.40222754     0.2511018      0              0.65232377     10.86517     
    139500   0.38200926     0.26687971     0              0.64793395     11.35093     
    140000   0.37716471     0.25453467     0              0.63075647     10.960162    
    140500   0.35870616     0.2438486      0              0.60165799     10.814134    
    141000   0.35895615     0.21195529     0              0.57001405     10.082463    
    141500   0.33340846     0.21857649     0              0.55115143     9.7926775    
    142000   0.34897627     0.19486436     0              0.54296819     9.0245384    
    142500   0.30607334     0.2110829      0              0.51639105     9.9959203    
    143000   0.33107811     0.18728995     0              0.51754037     8.9244614    
    143500   0.29359862     0.17523155     0              0.46809618     8.6038698    
    144000   0.29209117     0.18315252     0              0.47451346     8.5431147    
    144500   0.23666384     0.15662673     0              0.39269891     8.1529735    
    145000   0.25481359     0.14123902     0              0.39541558     7.7306877    
    145500   0.2254916      0.12671114     0              0.35163901     7.1774494    
    146000   0.21140236     0.13447948     0              0.34535333     7.2323997    
    146500   0.1802775      0.12529966     0              0.30512646     6.9705029    
    147000   0.18195742     0.11394292     0              0.29544545     6.7104399    
    147500   0.16342429     0.091309824    0              0.25432555     5.7003141    
    148000   0.16102043     0.080686292    0              0.24130417     5.3340744    
    148500   0.14260777     0.073240453    0              0.2154917      5.1994417    
    149000   0.13022376     0.066733146    0              0.19663135     4.7304976    
    149500   0.11048374     0.052776705    0              0.16298424     4.1443249    
    150000   0.097638062    0.055156565    0              0.15255053     4.2476899    
Loop time of 1.84033 on 8 procs for 100000 steps with 400 atoms

Performance: 46948016.911 tau/day, 54337.983 timesteps/s, 21.735 Matom-step/s
99.5% CPU use with 8 MPI tasks x 1 OpenMP threads

MPI task timing breakdown:
Section |  min time  |  avg time  |  max time  |%varavg| %total
---------------------------------------------------------------
Pair    | 0.17874    | 0.1866     | 0.20334    |   1.6 | 10.14
Neigh   | 0.12657    | 0.128      | 0.1297     |   0.3 |  6.96
Comm    | 0.96393    | 0.99121    | 1.0159     |   2.0 | 53.86
Output  | 0.015336   | 0.015445   | 0.01603    |   0.2 |  0.84
Modify  | 0.26048    | 0.29618    | 0.3321     |   6.0 | 16.09
Other   |            | 0.2229     |            |       | 12.11

Nlocal:             50 ave          51 max          49 min
Histogram: 3 0 0 0 0 2 0 0 0 3
Nghost:         47.875 ave          51 max          47 min
Histogram: 5 0 1 0 0 1 0 0 0 1
Neighs:          147.5 ave         153 max         142 min
Histogram: 1 0 1 1 2 0 0 2 0 1

Total # of neighbors = 1180
Ave neighs/atom = 2.95
Neighbor list builds = 23245
Dangerous builds = 0
Total wall time: 0:00:02
