LAMMPS (15 Sep 2022)
OMP_NUM_THREADS environment is not set. Defaulting to 1 thread. (src/comm.cpp:98)
  using 1 OpenMP thread(s) per MPI task
Lattice spacing in x,y,z = 1.7099759 1.7099759 1.7099759
Created triclinic box = (0 0 0) to (13.679808 13.679808 13.679808) with tilt (0 -0.85498797 0.85498797)
  2 by 2 by 2 MPI processor grid
Created 2048 atoms
  using lattice units in triclinic box = (0 0 0) to (13.679808 13.679808 13.679808) with tilt (0 -0.85498797 0.85498797)
  create_atoms CPU = 0.000 seconds
Generated 0 of 0 mixed pair_coeff terms from geometric mixing rule
Neighbor list info ...
  update: every = 1 steps, delay = 0 steps, check = yes
  max neighbors/atom: 2000, page size: 100000
  master list distance cutoff = 1.3
  ghost atom cutoff = 1.3
  binsize = 0.65, bins = 23 23 22
  1 neighbor lists, perpetual/occasional/extra = 1 0 0
  (1) pair lj/cut, perpetual
      attributes: half, newton on
      pair build: half/bin/newton/tri
      stencil: half/bin/3d/tri
      bin: standard
Setting up Verlet run ...
  Unit style    : lj
  Current step  : 0
  Time step     : 0.01
Per MPI rank memory allocation (min/avg/max) = 3.082 | 3.084 | 3.085 Mbytes
   Step          Temp          E_pair         E_mol          TotEng         Press     
         0   3              0              0              4.4978027      2.3988281    
       500   3.0471353      0.96183523     0              5.5303063      12.182749    
      1000   3.0057112      0.98084446     0              5.4872098      12.37267     
      1500   2.9622634      0.99777111     0              5.4389965      12.419808    
      2000   2.9446978      0.94746251     0              5.3623524      12.058611    
      2500   2.9706018      0.94342338     0              5.3971503      11.983854    
      3000   2.9872324      0.93009699     0              5.4087577      12.026973    
      3500   2.9875237      0.9945461      0              5.4736435      12.406625    
      4000   3.0461761      1.0533389      0              5.6203719      12.837905    
      4500   2.9927436      0.96961484     0              5.4565383      12.129847    
      5000   2.9984077      0.98731405     0              5.4827295      12.436237    
      5500   2.9347013      0.93457842     0              5.334481       11.969448    
      6000   2.9621861      0.9515066      0              5.3926162      12.095157    
      6500   3.0022804      1.0004701      0              5.5016917      12.515626    
      7000   3.0610818      0.98632197     0              5.5757026      12.44254     
      7500   3.1102238      0.93810078     0              5.6011585      12.218841    
      8000   3.068911       0.99530325     0              5.596422       12.506898    
      8500   3.0065693      0.97892056     0              5.4865724      12.326746    
      9000   3.0052884      0.99275894     0              5.4984904      12.437685    
      9500   2.9952579      1.0093916      0              5.5000845      12.531068    
     10000   2.9842683      0.97422703     0              5.4484437      12.217881    
     10500   2.9601842      0.93452351     0              5.3726318      11.941827    
     11000   2.976073       0.91956477     0              5.3814946      11.8568      
     11500   2.9866309      0.95481468     0              5.4325735      12.075661    
     12000   3.0031159      0.93211617     0              5.4345904      12.032312    
     12500   2.8681266      0.89140833     0              5.1914976      11.497627    
     13000   2.9336807      0.98235565     0              5.3807281      12.208202    
     13500   2.9927861      0.98362293     0              5.4706101      12.326952    
     14000   3.045558       1.0220219      0              5.5881283      12.752757    
     14500   3.0539053      1.0454753      0              5.6240965      12.762093    
     15000   3.0560079      0.99844431     0              5.5802179      12.407234    
     15500   2.9848241      0.99103177     0              5.4660817      12.317438    
     16000   2.9647006      1.0459456      0              5.4908251      12.829521    
     16500   2.9666997      0.98622098     0              5.4340976      12.365915    
     17000   3.0398759      0.93637834     0              5.4939657      12.073398    
     17500   3.0601528      0.96491714     0              5.5529049      12.294588    
     18000   3.0748208      1.0064517      0              5.6164308      12.42661     
     18500   3.0472471      0.99393192     0              5.5625707      12.66161     
     19000   3.0146939      1.0206501      0              5.5404829      12.660052    
     19500   2.9669397      0.91840444     0              5.366641       11.891796    
     20000   2.9844037      0.96071182     0              5.4351316      12.23809     
     20500   3.0452308      0.93413297     0              5.4997487      12.061398    
     21000   3.0345418      1.0743492      0              5.6239394      12.949906    
     21500   3.0376891      0.98367499     0              5.5379838      12.226056    
     22000   3.0381858      1.0700649      0              5.6251184      12.894496    
     22500   3.1032921      0.94089925     0              5.5935645      12.2139      
     23000   2.9719717      1.026292       0              5.4820729      12.785882    
     23500   2.9685935      1.0336736      0              5.4843895      12.569613    
     24000   3.0571672      0.96688033     0              5.550392       12.295107    
     24500   3.133787       1.027285       0              5.7256702      12.886421    
     25000   2.9618135      0.99081825     0              5.4313692      12.335494    
     25500   3.0092332      0.97683976     0              5.4884855      12.267962    
     26000   2.9932627      0.99797491     0              5.4856766      12.529587    
     26500   3.0423303      0.96567481     0              5.526942       12.249769    
     27000   2.9591058      1.0194483      0              5.4559397      12.56163     
     27500   2.9216603      0.98596828     0              5.3663189      12.259953    
     28000   2.9597253      1.0343207      0              5.4717409      12.611335    
     28500   3.0508724      1.0229774      0              5.5970514      12.688915    
     29000   3.0615911      0.94636723     0              5.5365115      12.133031    
     29500   3.0737246      0.93150927     0              5.5398449      12.070123    
     30000   3.0132661      1.0465304      0              5.5642226      12.933967    
     30500   3.0378067      0.9729724      0              5.5274574      12.297917    
     31000   2.9973809      1.0622982      0              5.5561742      12.977872    
     31500   3.0613687      1.0056486      0              5.5954593      12.582736    
     32000   3.0143754      0.97313622     0              5.4924916      12.160929    
     32500   2.9950652      1.0266568      0              5.5170609      12.585395    
     33000   2.9864163      1.0104478      0              5.487885       12.363148    
     33500   3.0016943      0.97499107     0              5.475334       12.356479    
     34000   2.9358599      0.96337863     0              5.3650182      12.285491    
     34500   3.0144226      0.95655927     0              5.4759853      12.213488    
     35000   3.0554491      0.96501226     0              5.5459481      12.231008    
     35500   3.0667931      0.95557428     0              5.5535177      12.320866    
     36000   3.066111       0.97543842     0              5.5723592      12.366533    
     36500   3.0530393      0.97006924     0              5.5473921      12.408796    
     37000   3.0187717      0.96283278     0              5.4887794      12.219192    
     37500   2.9827512      0.94873535     0              5.4206775      12.018924    
     38000   3.0175697      0.93734234     0              5.4614867      11.980627    
     38500   2.9731031      0.9885329      0              5.4460099      12.491627    
     39000   2.9665532      0.95003144     0              5.3976885      12.012134    
     39500   2.9424679      0.97818759     0              5.3897343      12.3191      
     40000   2.9380163      0.99308242     0              5.3979551      12.379235    
     40500   2.9882388      0.94426065     0              5.4244302      12.173243    
     41000   2.9887522      0.85646422     0              5.3374035      11.384907    
     41500   2.967912       1.0030722      0              5.4527665      12.476258    
     42000   3.0192491      1.03085        0              5.5575123      12.685099    
     42500   2.9697102      1.0452304      0              5.4976206      12.821867    
     43000   3.1016019      1.010221       0              5.6603523      12.572756    
     43500   3.0972714      0.8713255      0              5.5149641      11.628362    
     44000   3.0680944      0.93940832     0              5.5393029      12.19346     
     44500   3.0256969      0.93250518     0              5.4688345      11.961436    
     45000   3.0428194      0.95914627     0              5.5211467      12.204298    
     45500   3.08257        1.01049        0              5.6320872      12.584566    
     46000   2.9578193      0.9848845      0              5.4194471      12.266519    
     46500   2.9788666      0.9611458      0              5.4272639      12.311106    
     47000   3.0375774      0.9053841      0              5.4595255      11.894712    
     47500   3.0453751      0.95241808     0              5.5182503      12.106844    
     48000   3.0978465      0.99019282     0              5.6346936      12.585552    
     48500   3.1070032      0.99105675     0              5.6492859      12.499677    
     49000   3.0746535      1.0545369      0              5.6642653      12.818143    
     49500   3.0453086      1.0159234      0              5.5816559      12.546063    
     50000   3.0282586      0.92678874     0              5.4669586      11.946105    
Loop time of 5.12403 on 8 procs for 50000 steps with 2048 atoms

Performance: 8430861.064 tau/day, 9757.941 timesteps/s, 19.984 Matom-step/s
99.5% CPU use with 8 MPI tasks x 1 OpenMP threads

MPI task timing breakdown:
Section |  min time  |  avg time  |  max time  |%varavg| %total
---------------------------------------------------------------
Pair    | 0.41179    | 0.41561    | 0.42495    |   0.6 |  8.11
Neigh   | 2.8127     | 2.8293     | 2.8401     |   0.6 | 55.22
Comm    | 1.396      | 1.4061     | 1.4218     |   0.8 | 27.44
Output  | 0.001521   | 0.0020301  | 0.0054952  |   2.9 |  0.04
Modify  | 0.27852    | 0.28065    | 0.28376    |   0.3 |  5.48
Other   |            | 0.1903     |            |       |  3.71

Nlocal:            256 ave         260 max         252 min
Histogram: 1 2 1 0 0 0 0 1 2 1
Nghost:        418.875 ave         426 max         409 min
Histogram: 1 0 1 1 0 1 0 1 2 1
Neighs:        935.625 ave         984 max         912 min
Histogram: 3 1 1 0 0 1 1 0 0 1

Total # of neighbors = 7485
Ave neighs/atom = 3.6547852
Neighbor list builds = 20274
Dangerous builds = 0
Generated 0 of 0 mixed pair_coeff terms from geometric mixing rule
Setting up Verlet run ...
  Unit style    : lj
  Current step  : 50000
  Time step     : 0.01
Per MPI rank memory allocation (min/avg/max) = 3.138 | 3.14 | 3.141 Mbytes
   Step          Temp          E_pair         E_mol          TotEng         Press     
     50000   3.0282586      0.92678874     0              5.4669586      11.946105    
     50500   3.0582094      0.99481576     0              5.5798899      12.591708    
     51000   3.0054468      0.96140709     0              5.4673761      12.173178    
     51500   3.053751       0.93213482     0              5.5105247      11.972242    
     52000   2.9533272      0.94348369     0              5.3713115      12.008372    
     52500   2.9637106      0.93172144     0              5.3751167      11.939967    
     53000   2.9650688      0.9802372      0              5.4256687      12.305118    
     53500   2.9169119      0.92570248     0              5.2989339      11.933558    
     54000   2.9581897      0.91710864     0              5.3522266      11.770393    
     54500   2.85627        0.87081291     0              5.1531259      11.455709    
     55000   2.8217429      0.89132349     0              5.1218712      11.515024    
     55500   2.8185288      0.93141886     0              5.1571477      11.785886    
     56000   2.8089398      0.94329483     0              5.1546473      11.851686    
     56500   2.8568232      0.93012082     0              5.2132633      11.77257     
     57000   2.8073145      0.86574822     0              5.0746638      11.355876    
     57500   2.7421804      0.94764575     0              5.0589078      11.928729    
     58000   2.7932705      0.8716636      0              5.0595235      11.461874    
     58500   2.8047354      0.88891525     0              5.0939642      11.500125    
     59000   2.7997484      0.88175475     0              5.0793268      11.542655    
     59500   2.735082       0.88048227     0              4.9811021      11.315358    
     60000   2.692658       0.88405278     0              4.9210676      11.384415    
     60500   2.6644578      0.85357172     0              4.8483069      11.143081    
     61000   2.5953616      0.8763655      0              4.767507       11.271734    
     61500   2.6020759      0.84818083     0              4.7493889      11.130452    
     62000   2.6531666      0.81009863     0              4.7879054      10.631179    
     62500   2.6060956      0.84044118     0              4.7476758      10.984119    
     63000   2.6028475      0.85508424     0              4.7574491      11.138766    
     63500   2.6612811      0.82582659     0              4.8157991      10.864783    
     64000   2.6393188      0.79063834     0              4.7476834      10.576472    
     64500   2.5578459      0.78924191     0              4.6241374      10.648481    
     65000   2.5517244      0.83849443     0              4.6642121      11.089223    
     65500   2.616126       0.76411873     0              4.6863916      10.421583    
     66000   2.5362651      0.81601765     0              4.6185577      10.845205    
     66500   2.5900842      0.7735436      0              4.6567728      10.451054    
     67000   2.5051727      0.81514486     0              4.5710691      10.767635    
     67500   2.4561072      0.80517282     0              4.4875347      10.540643    
     68000   2.4685758      0.78159294     0              4.4826486      10.475195    
     68500   2.4830899      0.71347495     0              4.4362911      9.9763587    
     69000   2.4256741      0.7743075      0              4.411042       10.359636    
     69500   2.3397989      0.74283375     0              4.2508184      9.9396552    
     70000   2.3866115      0.727253       0              4.3054222      9.9203231    
     70500   2.3944613      0.71629587     0              4.3062341      9.9333103    
     71000   2.3879779      0.68852811     0              4.2687459      9.5820344    
     71500   2.4169703      0.66099352     0              4.2846787      9.3633459    
     72000   2.3796429      0.7493554      0              4.3170768      10.076719    
     72500   2.3291079      0.76686095     0              4.258817       10.171976    
     73000   2.3239097      0.79966568     0              4.2838281      10.449755    
     73500   2.3938578      0.76512731     0              4.3541607      10.130678    
     74000   2.3024341      0.73526307     0              4.1872279      9.9893352    
     74500   2.276807       0.76151151     0              4.1750544      9.9925184    
     75000   2.2845414      0.76163731     0              4.1867761      10.096124    
     75500   2.3430069      0.74599111     0              4.2587854      10.057548    
     76000   2.2405014      0.70523935     0              4.0643504      9.6127158    
     76500   2.2218353      0.7332979      0              4.0644235      9.9443974    
     77000   2.1980589      0.61721608     0              3.9126946      8.8808355    
     77500   2.1891222      0.69701917     0              3.979099       9.4805604    
     78000   2.1942077      0.66995676     0              3.9596612      9.3391562    
     78500   2.2540866      0.6248799      0              4.0043588      9.0456567    
     79000   2.1773387      0.62805813     0              3.8924715      8.9845345    
     79500   2.1482066      0.61137994     0              3.8321165      8.8810443    
     80000   2.1361318      0.69347595     0              3.8961092      9.337576     
     80500   2.1240854      0.6530516      0              3.837624       9.2738257    
     81000   2.1021315      0.63473348     0              3.7863911      8.9964644    
     81500   2.090125       0.67240871     0              3.8060653      9.2312153    
     82000   2.0736149      0.65340461     0              3.7623083      9.2004995    
     82500   2.0339225      0.6669632      0              3.7163573      9.3250893    
     83000   2.0665758      0.63560519     0              3.7339553      8.9272574    
     83500   2.0491307      0.63423768     0              3.7064329      8.9348881    
     84000   2.0049282      0.63092987     0              3.6368538      8.9212283    
     84500   2.0570479      0.60797831     0              3.6920435      8.7787554    
     85000   1.9867395      0.5980703      0              3.5767244      8.5319965    
     85500   1.9236544      0.64442137     0              3.528494       8.8583576    
     86000   1.8859269      0.59186337     0              3.4193724      8.4236954    
     86500   1.9103242      0.57230089     0              3.436388       8.1982295    
     87000   1.9163621      0.55419934     0              3.427339       8.2329987    
     87500   1.8755226      0.57278952     0              3.3846997      8.2364744    
     88000   1.8615072      0.57672635     0              3.3676238      8.2290874    
     88500   1.796701       0.55006141     0              3.2437969      7.9594273    
     89000   1.7973621      0.60748624     0              3.302213       8.4954211    
     89500   1.8469424      0.53156588     0              3.3006267      7.9724306    
     90000   1.8160103      0.55746568     0              3.280151       8.0596219    
     90500   1.8057506      0.51752974     0              3.2248331      7.795324     
     91000   1.801895       0.53725701     0              3.2387797      7.9805151    
     91500   1.7950986      0.51908517     0              3.2104183      7.7781549    
     92000   1.7803511      0.47833936     0              3.1475621      7.4351522    
     92500   1.7749908      0.51776205     0              3.1789482      7.6957474    
     93000   1.7241464      0.53703184     0              3.1219887      7.8654037    
     93500   1.7039375      0.52059199     0              3.0752502      7.6345738    
     94000   1.6955941      0.50058424     0              3.0427335      7.4876489    
     94500   1.6834701      0.50214278     0              3.0261149      7.5338275    
     95000   1.6586411      0.50367252     0              2.9904193      7.5093705    
     95500   1.6638038      0.45090309     0              2.9453902      7.1340662    
     96000   1.6752927      0.44229026     0              2.9540023      7.0196096    
     96500   1.6497906      0.43401308     0              2.9074906      6.9524297    
     97000   1.6249424      0.49022368     0              2.9264471      7.3159       
     97500   1.6294881      0.46761196     0              2.9106506      7.1429447    
     98000   1.6184611      0.48165524     0              2.9081615      7.2896915    
     98500   1.5977439      0.47121967     0              2.8666652      7.1808112    
     99000   1.6502875      0.43258481     0              2.9068074      6.8804488    
     99500   1.5739003      0.45732971     0              2.8170274      7.128272     
    100000   1.5564167      0.45387244     0              2.7873575      7.039286     
    100500   1.5394419      0.45693987     0              2.7649752      6.8722517    
    101000   1.5275109      0.44972494     0              2.7398725      6.9147322    
    101500   1.5468446      0.45639873     0              2.7755327      7.0388121    
    102000   1.5053884      0.44643478     0              2.7034148      6.847221     
    102500   1.4770117      0.4693847      0              2.6838205      7.0740371    
    103000   1.5055999      0.39631603     0              2.6536131      6.4337127    
    103500   1.4919729      0.38617029     0              2.6230369      6.3753294    
    104000   1.4630439      0.41636333     0              2.6098576      6.6618808    
    104500   1.4195708      0.39883515     0              2.5271516      6.4402351    
    105000   1.4091818      0.40028434     0              2.5130249      6.4592634    
    105500   1.4086755      0.39918907     0              2.5111706      6.3553127    
    106000   1.3965862      0.39713935     0              2.4909958      6.3298857    
    106500   1.3785263      0.36273137     0              2.4295112      6.0201464    
    107000   1.3478898      0.40298828     0              2.4238357      6.3934559    
    107500   1.3644798      0.39797641     0              2.4436968      6.5157566    
    108000   1.312749       0.37511709     0              2.3432791      6.1240449    
    108500   1.3167627      0.35823664     0              2.3324163      5.9435386    
    109000   1.2473661      0.35690531     0              2.2270408      5.7694691    
    109500   1.2471109      0.35938635     0              2.2291393      5.7966449    
    110000   1.2057919      0.36543658     0              2.1732412      5.84656      
    110500   1.2398849      0.32821986     0              2.1871391      5.5826867    
    111000   1.2214227      0.34547974     0              2.1767191      5.6949406    
    111500   1.2106171      0.35100738     0              2.1660464      5.8413598    
    112000   1.159732       0.31653518     0              2.0552838      5.4305762    
    112500   1.1584567      0.32972049     0              2.066557       5.4788211    
    113000   1.1532384      0.3324219      0              2.0614348      5.5910866    
    113500   1.1708848      0.28191007     0              2.0373798      5.0943089    
    114000   1.1317771      0.30298329     0              1.99982        5.2638031    
    114500   1.131363       0.30975099     0              2.0059669      5.3124451    
    115000   1.1083764      0.32073896     0              1.9824918      5.445177     
    115500   1.0936977      0.30497907     0              1.9447246      5.1489814    
    116000   1.0935054      0.28839342     0              1.9278506      5.0322001    
    116500   1.0686162      0.28608067     0              1.8882223      5.0355807    
    117000   1.0453588      0.27724265     0              1.8445153      4.910216     
    117500   1.0121362      0.28334537     0              1.8008084      4.9138748    
    118000   1.0145534      0.26759799     0              1.7886851      4.7786086    
    118500   1.0234806      0.24754848     0              1.7820198      4.5879949    
    119000   1.0057666      0.25116218     0              1.7590755      4.5504138    
    119500   0.97542866     0.25224897     0              1.7146775      4.6471625    
    120000   0.97782932     0.2343428      0              1.7003706      4.449501     
    120500   0.96450082     0.24521472     0              1.6912595      4.5038667    
    121000   0.96375355     0.2464615      0              1.691386       4.5212945    
    121500   0.92832372     0.23175541     0              1.6235611      4.391798     
    122000   0.92604876     0.23588108     0              1.624276       4.4271143    
    122500   0.87861584     0.25254233     0              1.5698226      4.5840738    
    123000   0.88976966     0.21494453     0              1.5489473      4.1216361    
    123500   0.87976948     0.20833805     0              1.5273479      4.0747371    
    124000   0.86726316     0.22568238     0              1.5259419      4.2124913    
    124500   0.84403322     0.22822753     0              1.4936592      4.2110371    
    125000   0.82945982     0.19313739     0              1.4367196      3.8242958    
    125500   0.81008121     0.19712633     0              1.4116548      3.8418323    
    126000   0.78942573     0.20394228     0              1.3875027      3.9270707    
    126500   0.78099695     0.19007777     0              1.3610012      3.7522918    
    127000   0.76006745     0.1796307      0              1.3191752      3.6334089    
    127500   0.74136617     0.17383625     0              1.2853425      3.556175     
    128000   0.7223454      0.19073962     0              1.2737287      3.7578466    
    128500   0.71199029     0.18807099     0              1.255535       3.7062399    
    129000   0.69865106     0.18408609     0              1.231551       3.5574233    
    129500   0.7158654      0.15249177     0              1.2257656      3.3091348    
    130000   0.65281147     0.16664614     0              1.1453852      3.4401671    
    130500   0.66794956     0.14967649     0              1.1511116      3.1772172    
    131000   0.65743573     0.15258243     0              1.1382545      3.2595105    
    131500   0.65197372     0.14361561     0              1.1210987      3.091989     
    132000   0.61908219     0.16228706     0              1.0904569      3.3141245    
    132500   0.58844279     0.14149121     0              1.0237244      3.0485016    
    133000   0.58455524     0.13662264     0              1.0130274      2.9866536    
    133500   0.57494163     0.13179478     0              0.99378612     2.9547673    
    134000   0.55450032     0.13018959     0              0.96153394     2.8688222    
    134500   0.5459424      0.11612069     0              0.93463443     2.6435206    
    135000   0.52766218     0.11815725     0              0.90926406     2.6943719    
    135500   0.52285651     0.11828324     0              0.90218506     2.6816706    
    136000   0.51445185     0.11393348     0              0.88523446     2.5871052    
    136500   0.4984679      0.096991581    0              0.84432834     2.3834795    
    137000   0.47080108     0.096605384    0              0.80246218     2.330036     
    137500   0.45712167     0.10090314     0              0.78625083     2.4291686    
    138000   0.45107489     0.096082593    0              0.77236455     2.3344717    
    138500   0.43696569     0.098627961    0              0.75375645     2.3635219    
    139000   0.4198206      0.091017649    0              0.72044106     2.2426753    
    139500   0.4018051      0.072423952    0              0.67483732     1.9376644    
    140000   0.38347474     0.07662385     0              0.65155509     1.9878348    
    140500   0.37860368     0.073667868    0              0.64129608     1.9573525    
    141000   0.36662558     0.067885387    0              0.61755524     1.8248651    
    141500   0.35501454     0.060736184    0              0.59299798     1.6989795    
    142000   0.33009879     0.053422317    0              0.54832872     1.5515388    
    142500   0.31872439     0.057860299    0              0.53571344     1.6165321    
    143000   0.31382555     0.05895405     0              0.52946252     1.6493545    
    143500   0.28463886     0.052975176    0              0.47972499     1.5155733    
    144000   0.27070584     0.049553369    0              0.45541385     1.4480643    
    144500   0.25838632     0.044045373    0              0.43143561     1.3368671    
    145000   0.249042       0.039472827    0              0.41285342     1.2833547    
    145500   0.23552409     0.039265688    0              0.39237932     1.2612939    
    146000   0.21276095     0.037279515    0              0.35626511     1.1923892    
    146500   0.20119263     0.030482079    0              0.33212367     1.0559399    
    147000   0.18760687     0.030598227    0              0.31187113     1.0477847    
    147500   0.17473546     0.028142931    0              0.29011815     0.97606392   
    148000   0.15613434     0.024218075    0              0.25830523     0.87662756   
    148500   0.14143839     0.022476149    0              0.23453014     0.83869348   
    149000   0.13026743     0.016807938    0              0.21211367     0.69800708   
    149500   0.11585581     0.014549032    0              0.1882479      0.65035411   
    150000   0.10276529     0.01100046     0              0.16507313     0.53078944   
Loop time of 8.27066 on 8 procs for 100000 steps with 2048 atoms

Performance: 10446560.945 tau/day, 12090.927 timesteps/s, 24.762 Matom-step/s
99.3% CPU use with 8 MPI tasks x 1 OpenMP threads

MPI task timing breakdown:
Section |  min time  |  avg time  |  max time  |%varavg| %total
---------------------------------------------------------------
Pair    | 0.73386    | 0.73924    | 0.75429    |   0.7 |  8.94
Neigh   | 3.9445     | 3.9711     | 4.0108     |   1.1 | 48.01
Comm    | 2.4492     | 2.4872     | 2.5161     |   1.3 | 30.07
Output  | 0.17229    | 0.17261    | 0.17465    |   0.2 |  2.09
Modify  | 0.555      | 0.55915    | 0.56511    |   0.4 |  6.76
Other   |            | 0.3413     |            |       |  4.13

Nlocal:            256 ave         264 max         244 min
Histogram: 1 0 1 0 0 1 1 2 0 2
Nghost:        418.875 ave         431 max         409 min
Histogram: 2 0 0 2 1 0 1 1 0 1
Neighs:        984.375 ave        1015 max         932 min
Histogram: 1 0 0 1 1 0 0 2 1 2

Total # of neighbors = 7875
Ave neighs/atom = 3.8452148
Neighbor list builds = 28372
Dangerous builds = 0
Total wall time: 0:00:13
LAMMPS (15 Sep 2022)
OMP_NUM_THREADS environment is not set. Defaulting to 1 thread. (src/comm.cpp:98)
  using 1 OpenMP thread(s) per MPI task
Lattice spacing in x,y,z = 1.6441414 1.6441414 1.6441414
Created triclinic box = (0 0 0) to (13.153131 13.153131 13.153131) with tilt (0 -0.82207069 0.82207069)
  2 by 2 by 2 MPI processor grid
Created 2048 atoms
  using lattice units in triclinic box = (0 0 0) to (13.153131 13.153131 13.153131) with tilt (0 -0.82207069 0.82207069)
  create_atoms CPU = 0.000 seconds
Generated 0 of 0 mixed pair_coeff terms from geometric mixing rule
Neighbor list info ...
  update: every = 1 steps, delay = 0 steps, check = yes
  max neighbors/atom: 2000, page size: 100000
  master list distance cutoff = 1.3
  ghost atom cutoff = 1.3
  binsize = 0.65, bins = 22 22 21
  1 neighbor lists, perpetual/occasional/extra = 1 0 0
  (1) pair lj/cut, perpetual
      attributes: half, newton on
      pair build: half/bin/newton/tri
      stencil: half/bin/3d/tri
      bin: standard
Setting up Verlet run ...
  Unit style    : lj
  Current step  : 0
  Time step     : 0.01
Per MPI rank memory allocation (min/avg/max) = 3.081 | 3.081 | 3.081 Mbytes
   Step          Temp          E_pair         E_mol          TotEng         Press     
         0   3              0              0              4.4978027      2.6986816    
       500   3.0911565      1.3731402      0              6.0076109      18.083223    
      1000   3.0400791      1.3876884      0              5.9455805      18.168093    
      1500   3.0646022      1.3337185      0              5.9283772      17.69929     
      2000   3.161948       1.3195285      0              6.0601346      17.860089    
      2500   3.0382751      1.2783891      0              5.8335764      17.204009    
      3000   3.0556902      1.3709059      0              5.9522031      18.037353    
      3500   2.9890414      1.3326329      0              5.8140058      17.767422    
      4000   2.9729436      1.2606896      0              5.7179276      16.980372    
      4500   2.932096       1.3221624      0              5.7181589      17.58906     
      5000   2.9748528      1.2704465      0              5.7305469      17.318988    
      5500   2.9416385      1.3777967      0              5.7880998      18.040963    
      6000   3.0376192      1.3282872      0              5.8824911      17.783926    
      6500   2.9845521      1.3295923      0              5.8042345      17.716152    
      7000   3.0237259      1.3790089      0              5.9123831      17.915759    
      7500   2.8811273      1.3250771      0              5.6446578      17.432897    
      8000   2.9584102      1.3427951      0              5.7782436      17.829339    
      8500   2.9926817      1.2672716      0              5.7541023      17.106018    
      9000   2.9506062      1.3299068      0              5.753655       17.758525    
      9500   2.9667766      1.3106878      0              5.7586798      17.362187    
     10000   3.0872805      1.2685049      0              5.8971644      17.157699    
     10500   3.03731        1.326449       0              5.8801894      17.778368    
     11000   2.9988388      1.4237158      0              5.9197777      18.312526    
     11500   3.0835678      1.2845353      0              5.9076285      17.319655    
     12000   3.022658       1.3472653      0              5.8790385      17.789207    
     12500   3.0153714      1.3466991      0              5.8675477      17.91288     
     13000   3.076921       1.3613594      0              5.9744873      17.968181    
     13500   2.9926101      1.3253969      0              5.8121202      17.424885    
     14000   2.9687164      1.3515857      0              5.8024859      17.615238    
     14500   2.9448892      1.3180314      0              5.7332083      17.342644    
     15000   2.9737859      1.3512492      0              5.80975        17.633658    
     15500   3.0749639      1.292826       0              5.9030197      17.338958    
     16000   2.9598437      1.3654138      0              5.8030116      18.106337    
     16500   3.0375133      1.3287406      0              5.8827858      17.786503    
     17000   2.8972408      1.3191755      0              5.6629148      17.400123    
     17500   3.000073       1.3324209      0              5.8303331      17.758563    
     18000   3.0721083      1.3322966      0              5.938209       17.732226    
     18500   3.0226736      1.2779108      0              5.8097073      17.310252    
     19000   2.9712411      1.3837459      0              5.8384314      18.12277     
     19500   3.011563       1.2701602      0              5.785299       17.157475    
     20000   2.9832642      1.3737996      0              5.8465109      18.215003    
     20500   2.9736027      1.339313       0              5.7975391      17.840671    
     21000   2.9533487      1.390328       0              5.8181881      18.014435    
     21500   2.9370842      1.2928955      0              5.6963706      17.362445    
     22000   2.9561209      1.3738751      0              5.8058913      18.105222    
     22500   2.968666       1.2756123      0              5.726437       17.166692    
     23000   3.0115524      1.3282636      0              5.8433865      17.650648    
     23500   2.9998999      1.4074173      0              5.9050699      18.301497    
     24000   2.933282       1.3556366      0              5.7534112      17.61394     
     24500   2.9378419      1.3419807      0              5.7465918      17.780561    
     25000   3.0064025      1.2932799      0              5.8006816      17.496753    
     25500   3.0415112      1.3209914      0              5.8810305      17.793674    
     26000   3.0454169      1.3838706      0              5.9497655      18.232059    
     26500   2.9907517      1.3608216      0              5.8447587      18.068463    
     27000   2.927653       1.2893112      0              5.6786464      17.189065    
     27500   2.961591       1.2485215      0              5.688739       17.04427     
     28000   2.9608575      1.2677114      0              5.7068291      17.142409    
     28500   2.9167687      1.3736252      0              5.7466419      17.756391    
     29000   3.0378627      1.2431747      0              5.7977438      17.141708    
     29500   2.9878316      1.3691345      0              5.8486936      18.127511    
     30000   2.9602267      1.4586298      0              5.8968017      18.578042    
     30500   3.077649       1.2983736      0              5.9125931      17.497524    
     31000   3.0280062      1.3554241      0              5.8952155      17.8078      
     31500   3.0031883      1.392603       0              5.8951859      18.25156     
     32000   2.9468382      1.3381299      0              5.7562289      17.697439    
     32500   2.9582396      1.3903217      0              5.8255144      18.304705    
     33000   2.9599359      1.2422307      0              5.6799666      16.839484    
     33500   3.0078498      1.2885761      0              5.7981478      17.367843    
     34000   3.0215751      1.4022175      0              5.9323671      18.389498    
     34500   2.992083       1.4028957      0              5.8888287      18.230727    
     35000   3.0923164      1.3320575      0              5.9682672      17.828253    
     35500   3.039458       1.3306732      0              5.8876341      17.713987    
     36000   2.957643       1.2712921      0              5.7055903      17.251576    
     36500   2.9604503      1.3081977      0              5.7467049      17.466208    
     37000   2.9224568      1.3476143      0              5.7291591      17.693244    
     37500   3.0691356      1.2275347      0              5.8289902      16.934269    
     38000   3.0445313      1.3871485      0              5.9517156      18.065054    
     38500   3.1424166      1.2470102      0              5.9583335      17.123305    
     39000   3.1002588      1.3359846      0              5.9841021      17.841565    
     39500   3.0766848      1.2708906      0              5.8836644      17.274171    
     40000   3.0110628      1.3276465      0              5.8420354      17.522676    
     40500   3.0384978      1.2481916      0              5.8037129      16.95782     
     41000   2.963981       1.3215056      0              5.7653063      17.428579    
     41500   2.9233084      1.320244       0              5.7030656      17.533382    
     42000   2.9500494      1.3066896      0              5.7296031      17.460936    
     42500   2.9717276      1.3652629      0              5.8206777      17.837081    
     43000   3.0338429      1.3157506      0              5.8642929      17.725959    
     43500   3.0751679      1.3105799      0              5.9210794      17.578407    
     44000   3.0784949      1.3250407      0              5.9405283      17.801837    
     44500   2.9639245      1.3817369      0              5.8254529      17.980249    
     45000   2.9804025      1.2353848      0              5.7038057      16.72435     
     45500   2.9120913      1.2908944      0              5.6568985      17.409226    
     46000   2.9724314      1.3288505      0              5.7853205      17.746644    
     46500   2.8651955      1.3910293      0              5.6867239      18.10788     
     47000   2.9683746      1.3497912      0              5.800179       17.884564    
     47500   3.0369052      1.3809225      0              5.9340559      18.036417    
     48000   3.0801645      1.2770111      0              5.8950019      17.366973    
     48500   3.0141683      1.3969984      0              5.9160432      18.105413    
     49000   2.9969049      1.2871387      0              5.780301       17.446308    
     49500   3.0188566      1.3756492      0              5.9017231      17.982946    
     50000   3.0294246      1.3291076      0              5.8710258      17.845379    
Loop time of 5.51863 on 8 procs for 50000 steps with 2048 atoms

Performance: 7828036.470 tau/day, 9060.227 timesteps/s, 18.555 Matom-step/s
99.6% CPU use with 8 MPI tasks x 1 OpenMP threads

MPI task timing breakdown:
Section |  min time  |  avg time  |  max time  |%varavg| %total
---------------------------------------------------------------
Pair    | 0.49089    | 0.49831    | 0.51099    |   0.9 |  9.03
Neigh   | 3.0952     | 3.1089     | 3.1222     |   0.5 | 56.33
Comm    | 1.4118     | 1.4386     | 1.4546     |   1.0 | 26.07
Output  | 0.0015206  | 0.0021161  | 0.0062072  |   3.4 |  0.04
Modify  | 0.27539    | 0.28085    | 0.28643    |   0.6 |  5.09
Other   |            | 0.1898     |            |       |  3.44

Nlocal:            256 ave         265 max         250 min
Histogram: 1 0 4 0 0 0 2 0 0 1
Nghost:         444.75 ave         457 max         431 min
Histogram: 2 0 0 1 1 0 1 0 2 1
Neighs:        1080.25 ave        1152 max        1015 min
Histogram: 1 1 0 2 0 2 0 0 1 1

Total # of neighbors = 8642
Ave neighs/atom = 4.2197266
Neighbor list builds = 20281
Dangerous builds = 0
Generated 0 of 0 mixed pair_coeff terms from geometric mixing rule
Setting up Verlet run ...
  Unit style    : lj
  Current step  : 50000
  Time step     : 0.01
Per MPI rank memory allocation (min/avg/max) = 3.137 | 3.137 | 3.138 Mbytes
   Step          Temp          E_pair         E_mol          TotEng         Press     
     50000   3.0294246      1.3291076      0              5.8710258      17.845379    
     50500   3.0223488      1.3146465      0              5.8459561      17.582354    
     51000   3.0894062      1.3705482      0              6.0023947      18.119117    
     51500   2.9340006      1.3195964      0              5.7184483      17.582752    
     52000   2.9547137      1.3050876      0              5.7349941      17.374079    
     52500   2.8655397      1.3313446      0              5.6275554      17.578988    
     53000   2.8743016      1.2463927      0              5.5557398      16.889559    
     53500   2.9230073      1.2123596      0              5.5947297      16.636449    
     54000   2.8265665      1.2378269      0              5.4756064      16.728138    
     54500   2.9005         1.2104904      0              5.559116       16.695997    
     55000   2.8274008      1.2964918      0              5.5355221      17.116897    
     55500   2.8451038      1.2337329      0              5.4993047      16.785031    
     56000   2.846604       1.2484967      0              5.5163178      16.9188      
     56500   2.8267644      1.1880911      0              5.4261674      16.445591    
     57000   2.7916305      1.1938225      0              5.3792236      16.183262    
     57500   2.7895865      1.1606318      0              5.3429685      16.241165    
     58000   2.7418255      1.2148852      0              5.3256153      16.541974    
     58500   2.7658134      1.1607102      0              5.3074046      16.099976    
     59000   2.7337386      1.2158649      0              5.3144705      16.391085    
     59500   2.7877169      1.1669419      0              5.3464756      16.132188    
     60000   2.7113949      1.1579606      0              5.2230671      15.948602    
     60500   2.7139257      1.2086408      0              5.2775416      16.47878     
     61000   2.7778974      1.1912909      0              5.3561024      16.214956    
     61500   2.6194787      1.169283       0              5.0965824      16.09345     
     62000   2.5984296      1.1498691      0              5.0456103      15.852341    
     62500   2.5738366      1.1730313      0              5.031901       16.034454    
     63000   2.5843706      1.1423443      0              5.0170073      15.750026    
     63500   2.5793882      1.1356906      0              5.0028837      15.775635    
     64000   2.5924707      1.1424267      0              5.0292339      15.671315    
     64500   2.6090166      1.0931919      0              5.0048059      15.265138    
     65000   2.5822494      1.0996948      0              4.9711776      15.560673    
     65500   2.5157535      1.0683977      0              4.8401855      15.14069     
     66000   2.4854216      1.1277806      0              4.8540926      15.650797    
     66500   2.5627484      0.99179045     0              4.834036       14.423754    
     67000   2.5104225      1.0594855      0              4.8232806      15.035314    
     67500   2.5688012      1.0804884      0              4.9318088      15.187087    
     68000   2.4726485      1.1628329      0              4.8699946      15.761552    
     68500   2.5005705      1.0411437      0              4.7901679      14.815298    
     69000   2.4314687      1.0011651      0              4.6465872      14.440243    
     69500   2.405152       1.0242318      0              4.6301982      14.718221    
     70000   2.3253665      1.0244912      0              4.5108379      14.607141    
     70500   2.4363905      0.93217437     0              4.5849757      14.038211    
     71000   2.3918779      1.0373127      0              4.6233777      14.746405    
     71500   2.4348629      1.0276595      0              4.6781705      14.675829    
     72000   2.3904654      0.97687934     0              4.5608266      14.152256    
     72500   2.3792439      1.0207339      0              4.5878572      14.647007    
     73000   2.4530807      1.0394251      0              4.7172494      14.742703    
     73500   2.4100294      0.96466068     0              4.5779396      13.995167    
     74000   2.3740861      0.96938346     0              4.5287737      14.217334    
     74500   2.3534516      0.94403418     0              4.4724879      13.830952    
     75000   2.2712147      0.97181784     0              4.3769764      14.078157    
     75500   2.2545639      0.98982068     0              4.3700152      14.195306    
     76000   2.3110849      0.89107623     0              4.3560108      13.414185    
     76500   2.2639157      0.98223574     0              4.3764511      14.216284    
     77000   2.2471363      0.94708883     0              4.3161474      13.804214    
     77500   2.2198264      0.95801086     0              4.2861246      13.886023    
     78000   2.1984239      0.98543803     0              4.2814637      14.142087    
     78500   2.2201771      0.92808429     0              4.2567238      13.646902    
     79000   2.1636801      0.92826129     0              4.1721968      13.50657     
     79500   2.1814973      0.89214991     0              4.162798       13.219706    
     80000   2.1823755      0.89893983     0              4.1709046      13.375555    
     80500   2.1676332      0.94448513     0              4.1943473      13.699687    
     81000   2.1333574      0.8844697      0              4.0829433      13.045818    
     81500   2.092739       0.85350928     0              3.9910851      12.866799    
     82000   2.0436023      0.91102195     0              3.9749287      13.209302    
     82500   2.0601733      0.88714474     0              3.9758958      13.233393    
     83000   2.0836922      0.85648449     0              3.9804967      12.756302    
     83500   2.0936191      0.87360334     0              4.0124986      12.982731    
     84000   2.0032016      0.85247771     0              3.855813       12.695747    
     84500   1.9923235      0.83828563     0              3.8253117      12.556293    
     85000   2.0005932      0.77718145     0              3.7766059      12.010882    
     85500   1.9761348      0.81380337     0              3.7765582      12.417007    
     86000   1.9633948      0.83171897     0              3.7753731      12.504987    
     86500   1.9823598      0.79904611     0              3.7711339      12.201619    
     87000   1.9228387      0.79202226     0              3.6748719      12.019135    
     87500   1.9218871      0.79811242     0              3.6795354      12.165004    
     88000   1.9460041      0.82326535     0              3.7408462      12.480963    
     88500   1.9601592      0.76033453     0              3.6991377      11.821857    
     89000   1.8599615      0.83086901     0              3.619449       12.416026    
     89500   1.8608519      0.77649798     0              3.5664129      11.914568    
     90000   1.8404065      0.72626176     0              3.4855236      11.401589    
     90500   1.848413       0.72200152     0              3.4932672      11.529963    
     91000   1.8095172      0.81074896     0              3.5236995      12.14666     
     91500   1.8604882      0.7958303      0              3.5852         12.059258    
     92000   1.8302003      0.73606635     0              3.4800263      11.55568     
     92500   1.7718195      0.71490877     0              3.3713403      11.362759    
     93000   1.727175       0.72033029     0              3.3098278      11.189109    
     93500   1.7606294      0.67024068     0              3.3098953      10.862519    
     94000   1.7561553      0.70543241     0              3.3383792      11.120611    
     94500   1.7233598      0.70982807     0              3.2936056      11.121374    
     95000   1.7181203      0.6890578      0              3.2649799      11.00471     
     95500   1.6610937      0.66048887     0              3.1509128      10.495652    
     96000   1.6463763      0.7024818      0              3.1708404      10.874842    
     96500   1.5839433      0.66606254     0              3.0408173      10.702331    
     97000   1.6369964      0.64071296     0              3.0950086      10.484987    
     97500   1.6246924      0.6262716      0              3.0621203      10.269699    
     98000   1.5952995      0.62398333     0              3.0157641      10.267537    
     98500   1.5520731      0.63621841     0              2.9631913      10.402119    
     99000   1.5731919      0.59373285     0              2.9523685      9.7535925    
     99500   1.5897978      0.56319167     0              2.9467239      9.6225833    
    100000   1.5346456      0.62280195     0              2.9236463      10.178878    
    100500   1.5481719      0.59426656     0              2.9153904      9.932866     
    101000   1.5125346      0.62784201     0              2.8955361      10.18221     
    101500   1.5142488      0.59134884     0              2.861613       9.8845109    
    102000   1.5022111      0.59512361     0              2.8473401      9.8354023    
    102500   1.465728       0.63740207     0              2.8349205      10.221976    
    103000   1.4604722      0.62840849     0              2.8180471      10.111217    
    103500   1.4513628      0.61410448     0              2.7900856      9.8832488    
    104000   1.4527145      0.51352593     0              2.6915336      8.9056234    
    104500   1.4292812      0.54991291     0              2.6927878      9.4122714    
    105000   1.3651286      0.56702274     0              2.6137159      9.4079238    
    105500   1.4020981      0.51628335     0              2.6184035      8.9014795    
    106000   1.359947       0.5612982      0              2.6002226      9.4224367    
    106500   1.3635128      0.51382952     0              2.5581         8.9926083    
    107000   1.3576805      0.53062831     0              2.5661546      8.9907841    
    107500   1.3705467      0.5415283      0              2.5963446      9.2570319    
    108000   1.352167       0.5412633      0              2.5685234      9.1969101    
    108500   1.3227486      0.48924602     0              2.4724002      8.6784174    
    109000   1.3251682      0.49466326     0              2.481445       8.6776429    
    109500   1.3056855      0.48894267     0              2.4465146      8.5763885    
    110000   1.2649834      0.48949903     0              2.3860477      8.5290223    
    110500   1.2567111      0.46948456     0              2.3536308      8.4126432    
    111000   1.2646417      0.47559375     0              2.37163        8.4815198    
    111500   1.2430806      0.43530809     0              2.2990186      8.0285389    
    112000   1.2258913      0.45141319     0              2.2893523      8.2512451    
    112500   1.1713869      0.44039378     0              2.1966162      7.8972261    
    113000   1.1718562      0.44206129     0              2.1989873      7.9578998    
    113500   1.1661196      0.43112212     0              2.1794475      7.9666669    
    114000   1.1650026      0.43675208     0              2.1834027      7.886551     
    114500   1.1256948      0.43089866     0              2.1186164      7.8583819    
    115000   1.1649637      0.40680967     0              2.153402       7.6171828    
    115500   1.1065244      0.39933531     0              2.0583115      7.4375795    
    116000   1.0921437      0.41171673     0              2.0491324      7.6329365    
    116500   1.0750214      0.39725689     0              2.0090017      7.3765896    
    117000   1.0712223      0.42722896     0              2.0332778      7.7989773    
    117500   1.0314994      0.39236866     0              1.9388623      7.3394309    
    118000   1.0231405      0.37121065     0              1.905172       6.9913838    
    118500   0.99165675     0.39575015     0              1.882509       7.2653053    
    119000   1.0348866      0.34757996     0              1.8991519      6.7768868    
    119500   0.98924795     0.33826546     0              1.8214128      6.7160404    
    120000   0.97213467     0.35775674     0              1.8152467      6.8342949    
    120500   0.98422948     0.30801502     0              1.7836384      6.1906331    
    121000   0.95905933     0.3357331      0              1.7736197      6.5959631    
    121500   0.91765929     0.3264492      0              1.702266       6.3428675    
    122000   0.90260004     0.31335685     0              1.6665958      6.3205624    
    122500   0.87648407     0.32850431     0              1.6425885      6.4576327    
    123000   0.88227776     0.29485488     0              1.6176253      5.9192692    
    123500   0.86101739     0.28943082     0              1.5803263      5.9846844    
    124000   0.86096111     0.28478546     0              1.5755965      5.8458298    
    124500   0.82826768     0.31655295     0              1.5583478      6.3006328    
    125000   0.84391064     0.28186384     0              1.5471117      5.8266229    
    125500   0.82761369     0.28052453     0              1.5213389      5.7494043    
    126000   0.82930617     0.25801835     0              1.5013702      5.498389     
    126500   0.78750819     0.27538061     0              1.4560661      5.7710684    
    127000   0.78912621     0.25354569     0              1.436657       5.3894204    
    127500   0.77355666     0.26209639     0              1.4218648      5.5681189    
    128000   0.7371863      0.28164877     0              1.3868883      5.7541148    
    128500   0.73272579     0.24835056     0              1.3469026      5.3312182    
    129000   0.69400452     0.24299774     0              1.2834962      5.200617     
    129500   0.67392364     0.2325652      0              1.2429571      5.0482213    
    130000   0.67476105     0.22662603     0              1.2382734      4.9733748    
    130500   0.66160597     0.22550354     0              1.2174279      5.0164789    
    131000   0.66297616     0.21985134     0              1.21383        4.9249789    
    131500   0.65083159     0.19045852     0              1.1662292      4.417688     
    132000   0.63403576     0.19237315     0              1.1429624      4.5038503    
    132500   0.61632478     0.19781824     0              1.121854       4.5504721    
    133000   0.60692631     0.16598375     0              1.0759287      4.0925515    
    133500   0.57087524     0.19975474     0              1.0556495      4.4543112    
    134000   0.55530005     0.18243116     0              1.0149745      4.2727712    
    134500   0.53848686     0.17834253     0              0.98567843     4.1858297    
    135000   0.53375163     0.15753108     0              0.95776759     3.8662794    
    135500   0.51540812     0.1512976      0              0.92403228     3.8211519    
    136000   0.49912215     0.1537165      0              0.90203416     3.8573513    
    136500   0.48473765     0.14889966     0              0.8756511      3.7394007    
    137000   0.47014835     0.1474623      0              0.85234049     3.7362856    
    137500   0.46298173     0.13633435     0              0.83046785     3.5083751    
    138000   0.44226592     0.14177111     0              0.80484607     3.6082366    
    138500   0.45051979     0.12050755     0              0.79595727     3.2800783    
    139000   0.42151283     0.11349134     0              0.74545186     3.0844082    
    139500   0.40715873     0.11362923     0              0.72406911     3.122716     
    140000   0.39151281     0.10503502     0              0.69201747     2.9003158    
    140500   0.38272634     0.10762133     0              0.68143052     3.0001648    
    141000   0.37189098     0.093583923    0              0.65114801     2.7126013    
    141500   0.34869044     0.095865836    0              0.6186461      2.706704     
    142000   0.32346146     0.089028337    0              0.57398361     2.6018164    
    142500   0.31704179     0.084080767    0              0.55941124     2.4885737    
    143000   0.30812724     0.076667958    0              0.53863314     2.3764827    
    143500   0.28504577     0.077599614    0              0.5049595      2.3429584    
    144000   0.2751913      0.062962643    0              0.47554804     2.0876715    
    144500   0.26209909     0.065619008    0              0.45857567     2.1320649    
    145000   0.24825483     0.056460645    0              0.42866106     1.8913339    
    145500   0.22779721     0.051376108    0              0.39290509     1.8156093    
    146000   0.21648665     0.050849597    0              0.37542101     1.7618193    
    146500   0.20569201     0.045153224    0              0.35354059     1.6194848    
    147000   0.18786245     0.042701155    0              0.32435724     1.5590418    
    147500   0.17190509     0.040766585    0              0.29849832     1.5358182    
    148000   0.16158667     0.030532848    0              0.27279451     1.2593632    
    148500   0.14532934     0.028872384    0              0.24675994     1.1983263    
    149000   0.13087999     0.02535391     0              0.22157803     1.0845679    
    149500   0.11518985     0.023016589    0              0.195717       1.0462893    
    150000   0.10261194     0.01621077     0              0.17005353     0.80501807   
Loop time of 8.75913 on 8 procs for 100000 steps with 2048 atoms

Performance: 9863998.082 tau/day, 11416.664 timesteps/s, 23.381 Matom-step/s
99.4% CPU use with 8 MPI tasks x 1 OpenMP threads

MPI task timing breakdown:
Section |  min time  |  avg time  |  max time  |%varavg| %total
---------------------------------------------------------------
Pair    | 0.87834    | 0.88993    | 0.90906    |   1.1 | 10.16
Neigh   | 4.3308     | 4.3434     | 4.3617     |   0.5 | 49.59
Comm    | 2.4743     | 2.5139     | 2.5312     |   1.1 | 28.70
Output  | 0.12115    | 0.1214     | 0.12292    |   0.2 |  1.39
Modify  | 0.54233    | 0.5523     | 0.56816    |   1.0 |  6.31
Other   |            | 0.3382     |            |       |  3.86

Nlocal:            256 ave         261 max         249 min
Histogram: 1 0 0 0 1 3 0 1 0 2
Nghost:            438 ave         445 max         431 min
Histogram: 1 1 1 0 0 1 2 1 0 1
Neighs:        1156.75 ave        1196 max        1105 min
Histogram: 1 0 0 1 1 2 0 1 1 1

Total # of neighbors = 9254
Ave neighs/atom = 4.5185547
Neighbor list builds = 28299
Dangerous builds = 0
Total wall time: 0:00:14
LAMMPS (15 Sep 2022)
OMP_NUM_THREADS environment is not set. Defaulting to 1 thread. (src/comm.cpp:98)
  using 1 OpenMP thread(s) per MPI task
Lattice spacing in x,y,z = 1.5874011 1.5874011 1.5874011
Created triclinic box = (0 0 0) to (12.699208 12.699208 12.699208) with tilt (0 -0.79370053 0.79370053)
  2 by 2 by 2 MPI processor grid
Created 2048 atoms
  using lattice units in triclinic box = (0 0 0) to (12.699208 12.699208 12.699208) with tilt (0 -0.79370053 0.79370053)
  create_atoms CPU = 0.000 seconds
Generated 0 of 0 mixed pair_coeff terms from geometric mixing rule
Neighbor list info ...
  update: every = 1 steps, delay = 0 steps, check = yes
  max neighbors/atom: 2000, page size: 100000
  master list distance cutoff = 1.3
  ghost atom cutoff = 1.3
  binsize = 0.65, bins = 21 21 20
  1 neighbor lists, perpetual/occasional/extra = 1 0 0
  (1) pair lj/cut, perpetual
      attributes: half, newton on
      pair build: half/bin/newton/tri
      stencil: half/bin/3d/tri
      bin: standard
Setting up Verlet run ...
  Unit style    : lj
  Current step  : 0
  Time step     : 0.01
Per MPI rank memory allocation (min/avg/max) = 3.079 | 3.08 | 3.081 Mbytes
   Step          Temp          E_pair         E_mol          TotEng         Press     
         0   3              0              0              4.4978027      2.9985352    
       500   3.1820754      1.8382071      0              6.6089897      25.650345    
      1000   3.0738669      1.84455        0              6.4530989      25.555493    
      1500   2.998064       1.8908627      0              6.3857629      25.94476     
      2000   3.0276729      1.7842185      0              6.3235104      24.904878    
      2500   3.0182109      1.8602895      0              6.3853952      25.603851    
      3000   3.0501373      1.86333        0              6.436302       25.850335    
      3500   2.9576952      1.7794735      0              6.2138501      24.990314    
      4000   2.9976506      1.7883367      0              6.2826171      25.235693    
      4500   3.0600747      1.7639304      0              6.3518013      24.683321    
      5000   3.0122991      1.6332696      0              6.149512       23.769365    
      5500   2.969806       1.8313255      0              6.2838593      25.662274    
      6000   3.0924841      1.8123403      0              6.4488014      25.349472    
      6500   3.0045245      1.7884234      0              6.2930096      25.190752    
      7000   3.0597912      1.7711164      0              6.3585622      25.307113    
      7500   3.0319734      1.7237281      0              6.2694675      24.494124    
      8000   3.0496022      1.819533       0              6.3917027      25.348985    
      8500   2.9569732      1.8559102      0              6.2892043      25.740166    
      9000   3.0178417      1.7809111      0              6.3054633      25.282628    
      9500   2.9814346      1.7904394      0              6.2604077      25.025962    
     10000   2.8947738      1.9007793      0              6.2408198      26.120425    
     10500   2.9908733      1.8243671      0              6.3084865      25.182912    
     11000   2.9829337      1.8100036      0              6.2822194      25.221154    
     11500   3.0098464      1.7941054      0              6.3066705      25.184413    
     12000   2.9960527      1.795297       0              6.2871816      25.011719    
     12500   2.9920731      1.7967693      0              6.2826874      25.229936    
     13000   3.0404063      1.7444518      0              6.3028344      24.963055    
     13500   2.9943001      1.8053146      0              6.2945717      25.344723    
     14000   2.9946789      1.8236981      0              6.3135231      25.367716    
     14500   3.0365417      1.78163        0              6.3342186      24.910868    
     15000   3.0633448      1.9232627      0              6.5160362      26.385933    
     15500   2.9400605      1.8400432      0              6.2479805      25.164732    
     16000   2.9965576      1.8693445      0              6.3619862      25.805189    
     16500   2.9969788      1.7918141      0              6.2850873      25.207388    
     17000   3.0017634      1.706342       0              6.2067887      24.284603    
     17500   3.0014355      1.7710979      0              6.2710528      25.101414    
     18000   2.9793734      1.8481146      0              6.3149925      25.535241    
     18500   3.0245627      1.7616052      0              6.2962341      24.66311     
     19000   3.0284144      1.8809778      0              6.4213813      25.754654    
     19500   2.9633381      1.6729131      0              6.1157499      23.844616    
     20000   2.9541345      1.8714226      0              6.3004606      25.710879    
     20500   2.9765562      1.8418167      0              6.3044708      25.441546    
     21000   3.0275612      1.7423443      0              6.2814686      24.755878    
     21500   3.1043817      1.7864044      0              6.4407033      25.409488    
     22000   2.9577531      1.8470723      0              6.2815356      25.738203    
     22500   2.9979074      1.9005608      0              6.3952262      26.17704     
     23000   2.9667079      1.6841182      0              6.1320072      24.18892     
     23500   2.9990345      1.755185       0              6.2515402      24.721157    
     24000   2.9818065      1.7388017      0              6.2093275      24.586975    
     24500   2.9676333      1.8819182      0              6.3311947      25.940306    
     25000   3.0257494      1.7313906      0              6.2677985      24.539177    
     25500   3.0575021      1.7672921      0              6.3513059      25.109312    
     26000   3.0133454      1.7784523      0              6.2962634      25.123564    
     26500   3.0022219      1.7924697      0              6.2936037      25.016315    
     27000   2.9880659      1.7846698      0              6.2645801      25.123068    
     27500   3.0139745      1.7968863      0              6.3156405      25.091654    
     28000   3.0430804      1.7634813      0              6.3258732      24.829102    
     28500   2.993834       1.7713735      0              6.2599317      25.012553    
     29000   3.0435224      1.8828575      0              6.445912       26.004972    
     29500   3.0200042      1.7802355      0              6.3080299      24.983667    
     30000   3.0399773      1.7788334      0              6.3365728      25.066448    
     30500   2.9448095      1.7930795      0              6.2081369      25.096591    
     31000   3.0342916      1.8557118      0              6.4049267      25.545262    
     31500   3.1061335      1.8245402      0              6.4814655      25.554816    
     32000   2.9576786      1.8088832      0              6.2432349      25.025989    
     32500   3.04127        1.7878335      0              6.347511       25.006152    
     33000   2.9669473      1.7566723      0              6.2049203      24.846316    
     33500   2.9666391      1.8716043      0              6.3193901      25.780616    
     34000   2.9115429      1.8171564      0              6.1823383      25.466408    
     34500   3.0306143      1.7979972      0              6.341699       25.119348    
     35000   3.1707851      1.8047138      0              6.558569       25.277707    
     35500   2.9941391      1.7506357      0              6.2396515      24.653285    
     36000   2.971223       1.8050099      0              6.2596681      25.349927    
     36500   2.9645572      1.8087964      0              6.2534609      25.091448    
     37000   2.9482351      1.8634358      0              6.2836291      25.698438    
     37500   3.0588047      1.7117202      0              6.2976869      24.732495    
     38000   2.967118       1.8203823      0              6.268886       25.319917    
     38500   3.0667805      1.8666246      0              6.4645491      25.849057    
     39000   3.0038862      1.7212384      0              6.2248675      24.437881    
     39500   2.9862766      1.8505372      0              6.3277648      25.549698    
     40000   2.9800495      1.8307709      0              6.2986624      25.603718    
     40500   2.9469791      1.8756425      0              6.2939527      25.920418    
     41000   3.0120086      1.674503       0              6.1903098      24.067587    
     41500   3.0462735      1.8076091      0              6.3747882      25.372872    
     42000   3.1642989      1.7873644      0              6.5314952      25.363652    
     42500   3.0042661      1.7199615      0              6.2241603      24.580518    
     43000   2.965337       1.8632417      0              6.3090753      25.51904     
     43500   2.9582081      1.8076052      0              6.2427507      25.227773    
     44000   2.9610359      1.7897638      0              6.2291489      25.161174    
     44500   2.97919        1.8086294      0              6.2752323      25.246702    
     45000   2.9367402      1.8073739      0              6.2103333      25.041086    
     45500   3.0299063      1.7546204      0              6.2972606      24.626643    
     46000   3.1238103      1.7883898      0              6.4718173      25.17895     
     46500   3.0499527      1.718696       0              6.2913913      24.770341    
     47000   3.1086207      1.868474       0              6.5291283      25.772459    
     47500   3.0097566      1.703902       0              6.2163324      24.453438    
     48000   3.0180972      1.8017359      0              6.3266711      25.09785     
     48500   2.975587       1.8774417      0              6.3386429      25.799489    
     49000   3.0154755      1.7608809      0              6.2818855      24.671372    
     49500   3.1171584      1.8437443      0              6.5171989      25.524462    
     50000   3.0419951      1.681503       0              6.2422676      24.376795    
Loop time of 5.97412 on 8 procs for 50000 steps with 2048 atoms

Performance: 7231185.108 tau/day, 8369.427 timesteps/s, 17.141 Matom-step/s
99.5% CPU use with 8 MPI tasks x 1 OpenMP threads

MPI task timing breakdown:
Section |  min time  |  avg time  |  max time  |%varavg| %total
---------------------------------------------------------------
Pair    | 0.58424    | 0.59328    | 0.61719    |   1.5 |  9.93
Neigh   | 3.4019     | 3.4194     | 3.4341     |   0.6 | 57.24
Comm    | 1.4588     | 1.4839     | 1.4996     |   1.1 | 24.84
Output  | 0.0016787  | 0.0021732  | 0.0054772  |   2.7 |  0.04
Modify  | 0.27928    | 0.28305    | 0.28921    |   0.5 |  4.74
Other   |            | 0.1923     |            |       |  3.22

Nlocal:            256 ave         263 max         248 min
Histogram: 1 0 0 1 2 0 2 0 1 1
Nghost:        456.125 ave         461 max         452 min
Histogram: 1 1 1 0 0 3 1 0 0 1
Neighs:        1232.38 ave        1283 max        1188 min
Histogram: 1 0 2 0 2 0 1 1 0 1

Total # of neighbors = 9859
Ave neighs/atom = 4.8139648
Neighbor list builds = 20260
Dangerous builds = 0
Generated 0 of 0 mixed pair_coeff terms from geometric mixing rule
Setting up Verlet run ...
  Unit style    : lj
  Current step  : 50000
  Time step     : 0.01
Per MPI rank memory allocation (min/avg/max) = 3.135 | 3.136 | 3.137 Mbytes
   Step          Temp          E_pair         E_mol          TotEng         Press     
     50000   3.0419951      1.681503       0              6.2422676      24.376795    
     50500   3.034397       1.8715435      0              6.4209165      25.963295    
     51000   2.9531298      1.7719682      0              6.1995         24.898958    
     51500   3.0715022      1.7915289      0              6.3965325      24.920349    
     52000   2.9191383      1.7612901      0              6.1378595      24.712728    
     52500   2.9628556      1.7796941      0              6.2218075      24.996362    
     53000   2.8752311      1.6337947      0              5.9445355      23.432844    
     53500   2.8836199      1.7298325      0              6.0531503      24.429611    
     54000   2.8485572      1.6546847      0              5.9254342      23.736628    
     54500   2.9018689      1.6826938      0              6.0333718      24.351401    
     55000   2.8935707      1.6665082      0              6.0047449      23.932916    
     55500   2.8817298      1.6915382      0              6.0120224      24.180875    
     56000   2.830465       1.6448101      0              5.8884345      23.508333    
     56500   2.8697253      1.6755698      0              5.9780559      24.123335    
     57000   2.723975       1.7020976      0              5.786065       24.112197    
     57500   2.7319517      1.6504872      0              5.7464138      23.650621    
     58000   2.7644786      1.5703666      0              5.7150597      23.303363    
     58500   2.757622       1.5728986      0              5.7073119      22.998143    
     59000   2.7374687      1.5700405      0              5.6742385      23.043696    
     59500   2.764247       1.5658859      0              5.7102318      22.811397    
     60000   2.6790755      1.5786527      0              5.5953038      22.904688    
     60500   2.715121       1.5672601      0              5.637953       22.871464    
     61000   2.6531145      1.5676055      0              5.5453341      22.826255    
     61500   2.6237767      1.6515134      0              5.5852568      23.480927    
     62000   2.7096816      1.5477781      0              5.6103159      22.667349    
     62500   2.6244634      1.5236012      0              5.458374       22.262787    
     63000   2.6437845      1.4903001      0              5.4540405      22.081671    
     63500   2.623113       1.5965453      0              5.5292935      23.042895    
     64000   2.6774876      1.5224173      0              5.5366876      22.597513    
     64500   2.6206158      1.6098501      0              5.5388544      23.051803    
     65000   2.5996477      1.5576623      0              5.4552298      22.748416    
     65500   2.6241655      1.5903774      0              5.5247037      23.046108    
     66000   2.518502       1.5488978      0              5.3248062      22.586051    
     66500   2.5843908      1.5936087      0              5.4683021      22.907349    
     67000   2.5806967      1.4738972      0              5.3430521      21.956801    
     67500   2.5787709      1.5009777      0              5.3672454      21.973054    
     68000   2.5008451      1.4538236      0              5.2032596      21.773964    
     68500   2.5065561      1.4892588      0              5.247257       22.03561     
     69000   2.4543853      1.3840427      0              5.063823       21.003631    
     69500   2.3934642      1.4461087      0              5.034552       21.496892    
     70000   2.39618        1.4049393      0              4.9974544      21.092157    
     70500   2.4103649      1.3660484      0              4.9798303      20.532051    
     71000   2.365326       1.3568992      0              4.9031559      20.386688    
     71500   2.3243896      1.4052577      0              4.8901397      21.024725    
     72000   2.3234695      1.370889       0              4.8543916      20.576293    
     72500   2.3091164      1.3578215      0              4.8198048      20.595151    
     73000   2.3085265      1.3419633      0              4.8030622      20.38823     
     73500   2.2846136      1.3831778      0              4.8084249      20.687473    
     74000   2.2974326      1.3853021      0              4.8297684      20.798311    
     74500   2.3036609      1.3858621      0              4.8396662      20.676106    
     75000   2.3533095      1.2784119      0              4.8066525      19.941903    
     75500   2.266985       1.3332874      0              4.7321046      20.337113    
     76000   2.2677717      1.323662       0              4.7236585      20.156371    
     76500   2.3404815      1.2566411      0              4.765649       19.592309    
     77000   2.3053133      1.3043338      0              4.7606153      20.149716    
     77500   2.2168535      1.2315023      0              4.5551589      19.293657    
     78000   2.1258408      1.3114899      0              4.4986941      19.840013    
     78500   2.1913284      1.2770478      0              4.5624353      19.497479    
     79000   2.157745       1.3284557      0              4.5634929      20.103644    
     79500   2.2224343      1.3240897      0              4.6561134      20.245699    
     80000   2.1778366      1.1897879      0              4.4549477      18.830384    
     80500   2.1423333      1.217749       0              4.4296799      19.145336    
     81000   2.0965708      1.249494       0              4.3928146      19.207526    
     81500   2.1146944      1.2076161      0              4.3781088      19.022701    
     82000   2.114938       1.2030166      0              4.3738746      18.730482    
     82500   2.0880973      1.2231395      0              4.3537561      19.226       
     83000   2.0985154      1.1496913      0              4.2959275      18.408667    
     83500   2.0036362      1.2475792      0              4.251566       19.231994    
     84000   1.9879278      1.2084026      0              4.1888383      18.723405    
     84500   2.0096524      1.122453       0              4.1354598      17.835274    
     85000   2.0016003      1.1333143      0              4.1342488      17.947147    
     85500   1.9712978      1.174245       0              4.1297478      18.547582    
     86000   1.9984069      1.2094159      0              4.2055626      18.923001    
     86500   1.9655286      1.0505945      0              3.9974478      17.377175    
     87000   1.9304297      1.0102443      0              3.9044749      16.753574    
     87500   1.9065432      1.0775793      0              3.9359978      17.162202    
     88000   1.9205429      1.0533267      0              3.9327344      17.228433    
     88500   1.894085       1.0239141      0              3.8636543      16.904773    
     89000   1.8960536      1.0468542      0              3.8895459      17.195621    
     89500   1.7939555      1.0835987      0              3.773218       17.519942    
     90000   1.8298259      1.0405945      0              3.7839931      16.986307    
     90500   1.8376722      1.0211378      0              3.7763002      16.991349    
     91000   1.7869744      1.0491893      0              3.728342       16.78398     
     91500   1.8293393      1.0159025      0              3.7585716      16.67563     
     92000   1.7689131      1.0032084      0              3.6552825      16.595989    
     92500   1.8003404      0.96396025     0              3.6631522      16.143879    
     93000   1.7354916      1.023516       0              3.6254823      16.857335    
     93500   1.7107319      1.0073959      0              3.5722407      16.608407    
     94000   1.7681113      0.98142735     0              3.6322993      16.401956    
     94500   1.7083415      0.94634554     0              3.5076065      15.85075     
     95000   1.7012132      0.95979307     0              3.5103669      16.276097    
     95500   1.6420919      0.93774661     0              3.3996817      15.612412    
     96000   1.6580488      0.90883921     0              3.394698       15.508855    
     96500   1.6158409      0.90694797     0              3.3295259      15.545813    
     97000   1.6022702      0.93827876     0              3.3405105      15.738109    
[...]
     60500   2.6878109      3.5574965      0              7.5872441      69.214282    
     61000   2.6942709      3.500736       0              7.5401689      68.67141     
     61500   2.7158788      3.4460598      0              7.5178889      68.002047    
     62000   2.636426       3.5429934      0              7.4957014      68.788996    
     62500   2.6717034      3.4134835      0              7.4190817      67.436288    
     63000   2.6999467      3.3157331      0              7.3636756      66.441321    
     63500   2.6990252      3.3093976      0              7.3559585      66.128026    
     64000   2.5643554      3.4551267      0              7.2997816      67.609837    
     64500   2.5296523      3.4212657      0              7.2138913      66.998571    
     65000   2.5942473      3.3857656      0              7.2752364      66.590962    
     65500   2.6240839      3.2189235      0              7.1531274      64.924152    
     66000   2.4804171      3.348797       0              7.0676059      66.25927     
     66500   2.5491896      3.2852633      0              7.1071805      65.549545    
     67000   2.4910477      3.3135489      0              7.048296       65.982019    
     67500   2.5378637      3.2180904      0              7.0230271      64.811313    
     68000   2.4724523      3.2524523      0              6.9593199      65.240072    
     68500   2.5007513      3.2000508      0              6.9493461      64.367318    
     69000   2.4586865      3.2431808      0              6.9294097      64.834205    
     69500   2.4698051      3.1141735      0              6.8170721      63.427536    
     70000   2.4051177      3.1546066      0              6.7605216      63.727129    
     70500   2.4156659      3.1303529      0              6.7520824      63.452362    
     71000   2.3748948      3.0766593      0              6.637262       62.261027    
     71500   2.3991814      2.9854062      0              6.582421       61.690361    
     72000   2.3422485      3.0153333      0              6.5269906      61.71057     
     72500   2.3486848      2.9868203      0              6.5081272      61.418701    
     73000   2.3051718      3.0368372      0              6.4929066      61.866104    
     73500   2.3030869      3.0109162      0              6.4638597      61.78726     
     74000   2.2944958      3.0452594      0              6.4853226      62.332534    
     74500   2.2833488      3.1135649      0              6.5369156      63.163553    
     75000   2.2717946      2.8593329      0              6.2653609      60.105957    
     75500   2.3409036      2.9678594      0              6.4775003      61.350535    
     76000   2.1984625      2.9527108      0              6.2487943      60.864357    
     76500   2.2121643      2.8825156      0              6.1991418      60.100764    
     77000   2.2372554      2.9868518      0              6.3410963      61.419628    
     77500   2.1626399      2.7941105      0              6.0364864      58.96839     
     78000   2.1910048      2.8629258      0              6.1478282      59.717352    
     78500   2.1496808      2.6957976      0              5.9187443      57.573053    
     79000   2.1318183      2.8285495      0              6.0247155      59.326752    
     79500   2.133866       2.7826463      0              5.9818824      58.677052    
     80000   2.1068176      2.7673067      0              5.9259901      58.262106    
     80500   2.1214487      2.8058328      0              5.9864521      59.041028    
     81000   2.0566881      2.6620318      0              5.7455576      57.181946    
     81500   2.0908845      2.7151242      0              5.8499195      57.824487    
     82000   2.081547       2.5648672      0              5.6856631      55.859024    
     82500   2.0269104      2.7087989      0              5.74768        57.630495    
     83000   2.0117593      2.6098132      0              5.6259787      56.332505    
     83500   2.0543481      2.6139643      0              5.6939819      56.105585    
     84000   2.013884       2.6659206      0              5.6852716      56.588632    
     84500   2.0317497      2.7334145      0              5.779551       58.134671    
     85000   1.9924304      2.5366032      0              5.5237896      55.303986    
     85500   2.0333032      2.5948132      0              5.6432787      56.102806    
     86000   1.9393639      2.5485598      0              5.4561852      55.301938    
     86500   1.9673262      2.5700241      0              5.5195724      55.644423    
     87000   1.9146522      2.5093185      0              5.3798944      54.626482    
     87500   1.9655461      2.4568566      0              5.4037362      54.128607    
     88000   1.9183634      2.4976152      0              5.3737552      54.672493    
     88500   1.9372453      2.5013607      0              5.4058097      54.67375     
     89000   1.8621808      2.4879859      0              5.2798932      54.587258    
     89500   1.8403287      2.4114944      0              5.1706397      53.801487    
     90000   1.8662984      2.4478459      0              5.2459266      53.872203    
     90500   1.829112       2.334995       0              5.0773234      52.4191      
     91000   1.8284416      2.4336675      0              5.1749907      53.88739     
     91500   1.7994813      2.3067225      0              5.0046265      52.188325    
     92000   1.7977518      2.3849248      0              5.0802359      52.911772    
     92500   1.7272673      2.3637026      0              4.9533385      52.585901    
     93000   1.8078253      2.456807       0              5.1672208      54.15636     
     93500   1.730317       2.2356636      0              4.8298717      51.03491     
     94000   1.7157695      2.2279906      0              4.8003881      50.765958    
     94500   1.6751735      2.2213765      0              4.7329098      50.45608     
     95000   1.7207099      2.2100962      0              4.7899008      50.697109    
     95500   1.6951247      2.1698818      0              4.7113272      49.844548    
     96000   1.6551159      2.2223171      0              4.7037787      50.844375    
     96500   1.6491934      2.1276957      0              4.600278       49.213173    
     97000   1.6725053      2.1358216      0              4.6433545      49.614629    
     97500   1.61925        2.1260499      0              4.5537389      49.08059     
     98000   1.6256311      2.1087883      0              4.5460442      49.106521    
     98500   1.6315618      2.0455408      0              4.4916885      48.559284    
     99000   1.6088399      2.1302677      0              4.5423492      49.298012    
     99500   1.5455798      2.0303651      0              4.3476029      48.042186    
    100000   1.5434405      2.0357067      0              4.3497369      47.981921    
    100500   1.510878       1.9548163      0              4.2200267      46.78963     
    101000   1.574823       1.9273035      0              4.2883847      46.349611    
    101500   1.444392       1.9640772      0              4.1296074      46.538003    
    102000   1.483808       1.9794787      0              4.2041039      46.865528    
    102500   1.4663057      1.8380358      0              4.0364205      45.127759    
    103000   1.4616894      1.8931242      0              4.0845877      45.641294    
    103500   1.4313872      1.8161065      0              3.962139       44.780066    
    104000   1.4254042      1.821504       0              3.9585664      44.530121    
    104500   1.4094076      1.8232089      0              3.9362881      44.90707     
    105000   1.4339775      1.8087256      0              3.9586416      44.756591    
    105500   1.3770684      1.7769095      0              3.8415036      43.98318     
    106000   1.3917009      1.7988146      0              3.8853466      44.299859    
    106500   1.3248176      1.7692873      0              3.7555435      43.92433     
    107000   1.3630643      1.7619833      0              3.8055813      44.053885    
    107500   1.2943344      1.6979241      0              3.6384777      42.784982    
    108000   1.2943814      1.6987267      0              3.6393507      42.699674    
    108500   1.2939022      1.6921768      0              3.6320824      42.760168    
    109000   1.2716113      1.6697533      0              3.5762389      42.181395    
    109500   1.2720565      1.6635502      0              3.5707033      42.11313     
    110000   1.2669156      1.6564788      0              3.5559244      42.265897    
    110500   1.3174445      1.6377087      0              3.6129105      41.915286    
    111000   1.2277872      1.5867284      0              3.4275099      41.161483    
    111500   1.2407968      1.6033155      0              3.4636019      41.170826    
    112000   1.2102212      1.5314081      0              3.3458536      40.105637    
    112500   1.1979888      1.6133364      0              3.4094422      41.292609    
    113000   1.1534849      1.532312       0              3.2616945      40.164631    
    113500   1.162715       1.5757463      0              3.3189672      40.457643    
    114000   1.1300697      1.4802159      0              3.1744927      39.263888    
    114500   1.1555464      1.4792351      0              3.2117084      39.067374    
    115000   1.11048        1.477921       0              3.1428277      39.16248     
    115500   1.0933546      1.4198105      0              3.0590416      38.227178    
    116000   1.0759205      1.4854819      0              3.0985746      39.009941    
    116500   1.0436124      1.4369351      0              3.0015893      38.400343    
    117000   1.0803144      1.4253078      0              3.0449882      38.288974    
    117500   1.0416071      1.3407585      0              2.9024063      36.983188    
    118000   1.0776287      1.3267234      0              2.9423771      36.869555    
    118500   1.0053774      1.3237048      0              2.8310345      36.468445    
    119000   1.0188744      1.3167765      0              2.8443418      36.415241    
    119500   0.96637156     1.2973497      0              2.7461993      35.930567    
    120000   0.97113062     1.3055981      0              2.7615828      36.384392    
    120500   0.98225595     1.2148785      0              2.687543       35.093593    
    121000   0.96626753     1.3070869      0              2.7557805      36.280081    
    121500   0.91211584     1.2116849      0              2.5791906      34.776275    
    122000   0.90458982     1.1944968      0              2.550719       34.33447     
    122500   0.91507857     1.1554099      0              2.5273576      33.619301    
    123000   0.8643932      1.1797141      0              2.4756708      34.059555    
    123500   0.88391023     1.0953111      0              2.420529       32.58812     
    124000   0.84673303     1.1231837      0              2.3926631      33.102971    
    124500   0.83270674     1.1228195      0              2.3712697      32.88806     
    125000   0.81846635     1.0247207      0              2.2518208      31.197693    
    125500   0.81888893     1.0560939      0              2.2838275      31.933404    
    126000   0.79332385     1.0188108      0              2.2082155      31.057593    
    126500   0.78850289     1.0230471      0              2.2052239      30.930506    
    127000   0.77258032     0.95639963     0              2.1147043      29.838678    
    127500   0.76013397     0.9934925      0              2.1331367      30.615728    
    128000   0.73523114     0.93419713     0              2.0365053      29.561947    
    128500   0.72196314     0.94834227     0              2.0307582      29.892003    
    129000   0.69680303     0.91477302     0              1.9594672      29.000326    
    129500   0.69440572     0.89881641     0              1.9399164      28.828276    
    130000   0.66481079     0.88649634     0              1.8832256      28.491316    
    130500   0.67484516     0.84911644     0              1.8608899      27.870023    
    131000   0.65475105     0.82491408     0              1.8065611      27.379062    
    131500   0.62679277     0.85090038     0              1.7906305      27.703918    
    132000   0.63052043     0.79788472     0              1.7432036      26.915044    
    132500   0.61316665     0.78657988     0              1.7058808      26.668881    
    133000   0.58801914     0.77525444     0              1.6568525      26.344706    
    133500   0.57917977     0.75858191     0              1.6269274      26.059229    
    134000   0.56845533     0.73193212     0              1.5841988      25.584204    
    134500   0.54903115     0.71966717     0              1.5428118      25.091411    
    135000   0.54309666     0.69610944     0              1.5103566      24.743212    
    135500   0.52198301     0.67919108     0              1.4617833      24.343404    
    136000   0.51174767     0.64565339     0              1.4129001      23.574275    
    136500   0.48853831     0.61612784     0              1.3485775      23.019731    
    137000   0.47208291     0.63038801     0              1.3381666      23.196897    
    137500   0.4516166      0.57843999     0              1.2555341      22.070578    
    138000   0.4476532      0.58419815     0              1.2553501      22.25001     
    138500   0.43287982     0.5536629      0              1.2026656      21.48343     
    139000   0.42826326     0.53183049     0              1.1739117      21.019674    
    139500   0.40329388     0.52536315     0              1.1300086      20.72016     
    140000   0.39170113     0.52562446     0              1.1128893      20.865459    
    140500   0.37639945     0.47613177     0              1.0404553      19.549222    
    141000   0.36648451     0.47768325     0              1.0271416      19.785271    
    141500   0.3397687      0.45283661     0              0.96224081     19.106027    
    142000   0.33748315     0.42575292     0              0.93173047     18.419553    
    142500   0.31990771     0.41298172     0              0.89260898     18.011473    
    143000   0.30857473     0.38712264     0              0.84975873     17.313008    
    143500   0.28656806     0.38112131     0              0.81076352     17.213026    
    144000   0.28080988     0.34783837     0              0.76884752     16.292609    
    144500   0.26632066     0.3272804      0              0.72656632     15.826303    
    145000   0.24208032     0.32405447     0              0.68699764     15.729938    
    145500   0.23691212     0.28989766     0              0.64509232     14.762453    
    146000   0.22260554     0.27144703     0              0.6051923      14.17388     
    146500   0.20186131     0.26027984     0              0.56292396     13.850774    
    147000   0.19080219     0.23674539     0              0.52280892     13.088188    
    147500   0.17701302     0.21659823     0              0.48198811     12.369653    
    148000   0.16414333     0.19459259     0              0.44068736     11.600667    
    148500   0.14581244     0.181631       0              0.40024286     11.180447    
    149000   0.13320821     0.15922628     0              0.35894102     10.357056    
    149500   0.11874526     0.14078469     0              0.31881561     9.5363475    
    150000   0.10280979     0.12402279     0              0.27816217     8.8952162    
Loop time of 9.52237 on 8 procs for 100000 steps with 2048 atoms

Performance: 9073367.349 tau/day, 10501.583 timesteps/s, 21.507 Matom-step/s
99.5% CPU use with 8 MPI tasks x 1 OpenMP threads

MPI task timing breakdown:
Section |  min time  |  avg time  |  max time  |%varavg| %total
---------------------------------------------------------------
Pair    | 2.0465     | 2.1167     | 2.2064     |   4.3 | 22.23
Neigh   | 3.2166     | 3.4657     | 3.8237     |  10.7 | 36.40
Comm    | 2.4677     | 2.886      | 3.1894     |  12.5 | 30.31
Output  | 0.14838    | 0.14851    | 0.14921    |   0.1 |  1.56
Modify  | 0.54514    | 0.5657     | 0.58025    |   1.5 |  5.94
Other   |            | 0.3398     |            |       |  3.57

Nlocal:            256 ave         262 max         248 min
Histogram: 1 0 1 1 0 1 0 2 1 1
Nghost:         488.25 ave         497 max         483 min
Histogram: 3 0 1 0 0 2 1 0 0 1
Neighs:           1536 ave        1583 max        1493 min
Histogram: 1 1 0 2 1 0 1 0 1 1

Total # of neighbors = 12288
Ave neighs/atom = 6
Neighbor list builds = 26066
Dangerous builds = 0
Total wall time: 0:00:15
LAMMPS (15 Sep 2022)
OMP_NUM_THREADS environment is not set. Defaulting to 1 thread. (src/comm.cpp:98)
  using 1 OpenMP thread(s) per MPI task
Lattice spacing in x,y,z = 1.3867225 1.3867225 1.3867225
Created triclinic box = (0 0 0) to (11.09378 11.09378 11.09378) with tilt (0 -0.69336127 0.69336127)
  2 by 2 by 2 MPI processor grid
Created 2048 atoms
  using lattice units in triclinic box = (0 0 0) to (11.09378 11.09378 11.09378) with tilt (0 -0.69336127 0.69336127)
  create_atoms CPU = 0.000 seconds
Generated 0 of 0 mixed pair_coeff terms from geometric mixing rule
Neighbor list info ...
  update: every = 1 steps, delay = 0 steps, check = yes
  max neighbors/atom: 2000, page size: 100000
  master list distance cutoff = 1.3
  ghost atom cutoff = 1.3
  binsize = 0.65, bins = 19 19 18
  1 neighbor lists, perpetual/occasional/extra = 1 0 0
  (1) pair lj/cut, perpetual
      attributes: half, newton on
      pair build: half/bin/newton/tri
      stencil: half/bin/3d/tri
      bin: standard
Setting up Verlet run ...
  Unit style    : lj
  Current step  : 0
  Time step     : 0.01
Per MPI rank memory allocation (min/avg/max) = 3.077 | 3.078 | 3.079 Mbytes
   Step          Temp          E_pair         E_mol          TotEng         Press     
         0   3              0.9375         0              5.4353027      55.122803    
       500   2.7593454      5.3711547      0              9.5081517      108.18905    
      1000   2.9470537      5.9989843      0              10.417406      115.51303    
      1500   3.0164128      6.0587566      0              10.581167      115.96491    
      2000   3.0276289      6.0017524      0              10.540978      115.61702    
      2500   3.0402214      5.8895303      0              10.447636      114.30741    
      3000   3.0013297      5.918768       0              10.418564      114.80086    
      3500   2.9212982      6.1089966      0              10.488804      116.63787    
      4000   2.9795194      6.0359904      0              10.503087      115.89652    
      4500   3.0841586      5.9048421      0              10.528821      114.67389    
      5000   3.0056756      6.2184228      0              10.724735      118.02739    
      5500   3.0592241      6.0780722      0              10.664668      116.16596    
      6000   3.1163273      6.0480081      0              10.720217      116.16731    
      6500   3.0425688      6.0992508      0              10.660876      116.78244    
ERROR: Lost atoms: original 2048 current 593 (src/thermo.cpp:481)
Last command: run ${equil_steps}
--------------------------------------------------------------------------
Primary job  terminated normally, but 1 process returned
a non-zero exit code. Per user-direction, the job has been aborted.
--------------------------------------------------------------------------
--------------------------------------------------------------------------
mpirun detected that one or more processes exited with non-zero status, thus causing
the job to be terminated. The first process to do so was:

  Process name: [[49763,1],0]
  Exit code:    1
--------------------------------------------------------------------------
